Program Version,EnergyPlus-Darwin-OMP-64 8.0.0.008, YMD=2013.08.30 11:44
1,5,Environment Title[],Latitude[deg],Longitude[deg],Time Zone[],Elevation[m]
2,6,Day of Simulation[],Month[],Day of Month[],DST Indicator[1=yes 0=no],Hour[],StartMinute[],EndMinute[],DayType
3,3,Cumulative Day of Simulation[],Month[],Day of Month[],DST Indicator[1=yes 0=no],DayType  ! When Daily Report Variables Requested
4,2,Cumulative Days of Simulation[],Month[]  ! When Monthly Report Variables Requested
5,1,Cumulative Days of Simulation[] ! When Run Period Report Variables Requested
6,1,Environment,Site Outdoor Air Drybulb Temperature [C] !TimeStep
267,1,ZSF1,Zone Air System Sensible Heating Rate [W] !TimeStep
268,1,ZSF1,Zone Air System Sensible Cooling Rate [W] !TimeStep
269,1,ZSF1,Zone Air Temperature [C] !TimeStep
270,1,ZSF1,Zone Air Humidity Ratio [] !TimeStep
303,1,ZNF1,Zone Air System Sensible Heating Rate [W] !TimeStep
304,1,ZNF1,Zone Air System Sensible Cooling Rate [W] !TimeStep
305,1,ZNF1,Zone Air Temperature [C] !TimeStep
306,1,ZNF1,Zone Air Humidity Ratio [] !TimeStep
339,1,ZSF2,Zone Air System Sensible Heating Rate [W] !TimeStep
340,1,ZSF2,Zone Air System Sensible Cooling Rate [W] !TimeStep
341,1,ZSF2,Zone Air Temperature [C] !TimeStep
342,1,ZSF2,Zone Air Humidity Ratio [] !TimeStep
375,1,ZNF2,Zone Air System Sensible Heating Rate [W] !TimeStep
376,1,ZNF2,Zone Air System Sensible Cooling Rate [W] !TimeStep
377,1,ZNF2,Zone Air Temperature [C] !TimeStep
378,1,ZNF2,Zone Air Humidity Ratio [] !TimeStep
411,1,BASE-1,Zone Air System Sensible Heating Rate [W] !TimeStep
412,1,BASE-1,Zone Air System Sensible Cooling Rate [W] !TimeStep
413,1,BASE-1,Zone Air Temperature [C] !TimeStep
414,1,BASE-1,Zone Air Humidity Ratio [] !TimeStep
415,1,DX COOLING COIL SYSTEM 1,Coil System Part Load Ratio [] !TimeStep
416,1,DX COOLING COIL SYSTEM 2,Coil System Part Load Ratio [] !TimeStep
417,1,DX COOLING COIL SYSTEM 3,Coil System Part Load Ratio [] !TimeStep
418,1,DX COOLING COIL SYSTEM 4,Coil System Part Load Ratio [] !TimeStep
419,1,ACDXCOIL 1,Cooling Coil Total Cooling Rate [W] !TimeStep
441,1,ACDXCOIL 1,Cooling Coil Sensible Cooling Rate [W] !TimeStep
463,1,ACDXCOIL 2,Cooling Coil Total Cooling Rate [W] !TimeStep
465,1,ACDXCOIL 2,Cooling Coil Sensible Cooling Rate [W] !TimeStep
467,1,ACDXCOIL 3,Cooling Coil Total Cooling Rate [W] !TimeStep
469,1,ACDXCOIL 3,Cooling Coil Sensible Cooling Rate [W] !TimeStep
471,1,ACDXCOIL 4,Cooling Coil Total Cooling Rate [W] !TimeStep
473,1,ACDXCOIL 4,Cooling Coil Sensible Cooling Rate [W] !TimeStep
486,1,MAIN HEATING COIL 1,Heating Coil Air Heating Rate [W] !TimeStep
531,1,MAIN HEATING COIL 2,Heating Coil Air Heating Rate [W] !TimeStep
536,1,MAIN HEATING COIL 3,Heating Coil Air Heating Rate [W] !TimeStep
541,1,MAIN HEATING COIL 4,Heating Coil Air Heating Rate [W] !TimeStep
676,1,TSETCOO,Schedule Value [] !TimeStep
677,1,TSETHEA,Schedule Value [] !TimeStep
456,9,Cooling:Electricity [J] !Monthly  [Value,Min,Day,Hour,Minute,Max,Day,Hour,Minute]
511,9,Heating:Gas [J] !Monthly  [Value,Min,Day,Hour,Minute,Max,Day,Hour,Minute]
549,9,Fans:Electricity [J] !Monthly  [Value,Min,Day,Hour,Minute,Max,Day,Hour,Minute]
479,9,HeatingCoils:EnergyTransfer [J] !Monthly  [Value,Min,Day,Hour,Minute,Max,Day,Hour,Minute]
434,9,CoolingCoils:EnergyTransfer [J] !Monthly  [Value,Min,Day,Hour,Minute,Max,Day,Hour,Minute]
41,9,InteriorLights:Electricity [J] !Monthly  [Value,Min,Day,Hour,Minute,Max,Day,Hour,Minute]
135,9,InteriorEquipment:Electricity [J] !Monthly  [Value,Min,Day,Hour,Minute,Max,Day,Hour,Minute]
457,11,Cooling:Electricity [J] !RunPeriod [Value,Min,Month,Day,Hour,Minute,Max,Month,Day,Hour,Minute]
512,11,Heating:Gas [J] !RunPeriod [Value,Min,Month,Day,Hour,Minute,Max,Month,Day,Hour,Minute]
550,11,Fans:Electricity [J] !RunPeriod [Value,Min,Month,Day,Hour,Minute,Max,Month,Day,Hour,Minute]
480,11,HeatingCoils:EnergyTransfer [J] !RunPeriod [Value,Min,Month,Day,Hour,Minute,Max,Month,Day,Hour,Minute]
435,11,CoolingCoils:EnergyTransfer [J] !RunPeriod [Value,Min,Month,Day,Hour,Minute,Max,Month,Day,Hour,Minute]
42,11,InteriorLights:Electricity [J] !RunPeriod [Value,Min,Month,Day,Hour,Minute,Max,Month,Day,Hour,Minute]
136,11,InteriorEquipment:Electricity [J] !RunPeriod [Value,Min,Month,Day,Hour,Minute,Max,Month,Day,Hour,Minute]
End of Data Dictionary
1,Chicago Ohare Intl Ap IL USA TMY3 WMO#=725300,  41.98, -87.92,  -6.00, 201.00
2,1, 6,16, 0, 1, 0.00,15.00,Tuesday        
6,25.175
676,30.
677,16.
267,0.0
268,0.0
269,27.405776728738
270,1.004415402084408E-002
303,0.0
304,0.0
305,27.3281017717337
306,1.004670316126182E-002
339,0.0
340,0.0
341,29.1776199267464
342,1.005204180478473E-002
375,0.0
376,0.0
377,29.1199309354813
378,1.005208542815996E-002
411,0.0
412,0.0
413,23.6039607943332
414,1.041034903211653E-002
415,0.0
416,0.0
417,0.0
418,0.0
419,0.0
441,0.0
463,0.0
465,0.0
467,0.0
469,0.0
471,0.0
473,0.0
486,0.0
531,0.0
536,0.0
541,0.0
2,1, 6,16, 0, 1,15.00,30.00,Tuesday        
6,24.75
676,30.
677,16.
267,0.0
268,0.0
269,27.3419531267527
270,1.006625021242201E-002
303,0.0
304,0.0
305,27.2655552932939
306,1.006851076257344E-002
339,0.0
340,0.0
341,29.0786960208593
342,1.007480803837100E-002
375,0.0
376,0.0
377,29.0213414012346
378,1.007480368358507E-002
411,0.0
412,0.0
413,23.4868363924944
414,1.036217833284875E-002
415,0.0
416,0.0
417,0.0
418,0.0
419,0.0
441,0.0
463,0.0
465,0.0
467,0.0
469,0.0
471,0.0
473,0.0
486,0.0
531,0.0
536,0.0
541,0.0
2,1, 6,16, 0, 1,30.00,45.00,Tuesday        
6,24.325
676,30.
677,16.
267,0.0
268,0.0
269,27.271061231943
270,1.006987926895242E-002
303,0.0
304,0.0
305,27.1959556738549
306,1.007192550974937E-002
339,0.0
340,0.0
341,28.9692976888006
342,1.007784334141931E-002
375,0.0
376,0.0
377,28.9123823207537
378,1.007783364436668E-002
411,0.0
412,0.0
413,23.3642645603467
414,1.025613567239822E-002
415,0.0
416,0.0
417,0.0
418,0.0
419,0.0
441,0.0
463,0.0
465,0.0
467,0.0
469,0.0
471,0.0
473,0.0
486,0.0
531,0.0
536,0.0
541,0.0
2,1, 6,16, 0, 1,45.00,60.00,Tuesday        
6,23.9
676,30.
677,16.
267,0.0
268,0.0
269,27.194971564975
270,1.005606386775311E-002
303,0.0
304,0.0
305,27.121157370802
306,1.005795861990264E-002
339,0.0
340,0.0
341,28.8702937161282
342,1.006242416883709E-002
375,0.0
376,0.0
377,28.812025340446
378,1.006244428164712E-002
411,0.0
412,0.0
413,23.2413894387859
414,1.011706733570454E-002
415,0.0
416,0.0
417,0.0
418,0.0
419,0.0
441,0.0
463,0.0
465,0.0
467,0.0
469,0.0
471,0.0
473,0.0
486,0.0
531,0.0
536,0.0
541,0.0
2,1, 6,16, 0, 2, 0.00,15.00,Tuesday        
6,23.75
676,30.
677,16.
267,0.0
268,0.0
269,27.1272981724658
270,1.003104289596654E-002
303,0.0
304,0.0
305,27.0547047558716
306,1.003282667850536E-002
339,0.0
340,0.0
341,28.7804459071284
342,1.003530517221401E-002
375,0.0
376,0.0
377,28.7212628645375
378,1.003537451513206E-002
411,0.0
412,0.0
413,23.1541540471489
414,9.980550744159386E-003
415,0.0
416,0.0
417,0.0
418,0.0
419,0.0
441,0.0
463,0.0
465,0.0
467,0.0
469,0.0
471,0.0
473,0.0
486,0.0
531,0.0
536,0.0
541,0.0
2,1, 6,16, 0, 2,15.00,30.00,Tuesday        
6,23.6
676,30.
677,16.
267,0.0
268,0.0
269,27.0688135045413
270,9.998989102062632E-003
303,0.0
304,0.0
305,26.9973760045966
306,1.000068765116022E-002
339,0.0
340,0.0
341,28.693818171808
342,1.000098129640704E-002
375,0.0
376,0.0
377,28.6345533441824
378,1.000110919705410E-002
411,0.0
412,0.0
413,23.0947544296793
414,9.860422890623159E-003
415,0.0
416,0.0
417,0.0
418,0.0
419,0.0
441,0.0
463,0.0
465,0.0
467,0.0
469,0.0
471,0.0
473,0.0
486,0.0
531,0.0
536,0.0
541,0.0
2,1, 6,16, 0, 2,30.00,45.00,Tuesday        
6,23.45
676,30.
677,16.
267,0.0
268,0.0
269,27.0150462094939
270,9.961715742791042E-003
303,0.0
304,0.0
305,26.9447246991959
306,9.963347461074050E-003
339,0.0
340,0.0
341,28.6080306854055
342,9.961407134483439E-003
375,0.0
376,0.0
377,28.5490707334707
378,9.961597984836123E-003
411,0.0
412,0.0
413,23.0443413501745
414,9.755141176575711E-003
415,0.0
416,0.0
417,0.0
418,0.0
419,0.0
441,0.0
463,0.0
465,0.0
467,0.0
469,0.0
471,0.0
473,0.0
486,0.0
531,0.0
536,0.0
541,0.0
2,1, 6,16, 0, 2,45.00,60.00,Tuesday        
6,23.3
676,30.
677,16.
267,0.0
268,0.0
269,26.9629239003458
270,9.919879098062939E-003
303,0.0
304,0.0
305,26.8936899678136
306,9.921458750337713E-003
339,0.0
340,0.0
341,28.5230677652243
342,9.917294189318020E-003
375,0.0
376,0.0
377,28.4645007031684
378,9.917550055674606E-003
411,0.0
412,0.0
413,22.9892451207642
414,9.658907772772122E-003
415,0.0
416,0.0
417,0.0
418,0.0
419,0.0
441,0.0
463,0.0
465,0.0
467,0.0
469,0.0
471,0.0
473,0.0
486,0.0
531,0.0
536,0.0
541,0.0
2,1, 6,16, 0, 3, 0.00,15.00,Tuesday        
6,23.025
676,30.
677,16.
267,0.0
268,0.0
269,26.9056872615423
270,9.877018152983388E-003
303,0.0
304,0.0
305,26.837539539046
306,9.878550137838622E-003
339,0.0
340,0.0
341,28.4338746567092
342,9.872384430726111E-003
375,0.0
376,0.0
377,28.3757497124204
378,9.872699534478373E-003
411,0.0
412,0.0
413,22.897636757527
414,9.581246779252428E-003
415,0.0
416,0.0
417,0.0
418,0.0
419,0.0
441,0.0
463,0.0
465,0.0
467,0.0
469,0.0
471,0.0
473,0.0
486,0.0
531,0.0
536,0.0
541,0.0
2,1, 6,16, 0, 3,15.00,30.00,Tuesday        
6,22.75
676,30.
677,16.
267,0.0
268,0.0
269,26.8426600297827
270,9.835114072942752E-003
303,0.0
304,0.0
305,26.7755972285167
306,9.836597443566854E-003
339,0.0
340,0.0
341,28.3397010172575
342,9.828748984119411E-003
375,0.0
376,0.0
377,28.2820696477543
378,9.829113857318862E-003
411,0.0
412,0.0
413,22.7772476216044
414,9.522919112114576E-003
415,0.0
416,0.0
417,0.0
418,0.0
419,0.0
441,0.0
463,0.0
465,0.0
467,0.0
469,0.0
471,0.0
473,0.0
486,0.0
531,0.0
536,0.0
541,0.0
2,1, 6,16, 0, 3,30.00,45.00,Tuesday        
6,22.475
676,30.
677,16.
267,0.0
268,0.0
269,26.7758975882726
270,9.794608063771726E-003
303,0.0
304,0.0
305,26.7099112444128
306,9.796041024360066E-003
339,0.0
340,0.0
341,28.2420113233839
342,9.786819989514150E-003
375,0.0
376,0.0
377,28.1849216251156
378,9.787225171065827E-003
411,0.0
412,0.0
413,22.6451744642533
414,9.478334340780881E-003
415,0.0
416,0.0
417,0.0
418,0.0
419,0.0
441,0.0
463,0.0
465,0.0
467,0.0
469,0.0
471,0.0
473,0.0
486,0.0
531,0.0
536,0.0
541,0.0
2,1, 6,16, 0, 3,45.00,60.00,Tuesday        
6,22.2
676,30.
677,16.
267,0.0
268,0.0
269,26.706884007451
270,9.755255811646033E-003
303,0.0
304,0.0
305,26.6419605582189
306,9.756637553384255E-003
339,0.0
340,0.0
341,28.141843514593
342,9.746305959849485E-003
375,0.0
376,0.0
377,28.0853338229667
378,9.746743474215091E-003
411,0.0
412,0.0
413,22.5112800390634
414,9.441219607851771E-003
415,0.0
416,0.0
417,0.0
418,0.0
419,0.0
441,0.0
463,0.0
465,0.0
467,0.0
469,0.0
471,0.0
473,0.0
486,0.0
531,0.0
536,0.0
541,0.0
2,1, 6,16, 0, 4, 0.00,15.00,Tuesday        
6,22.075
676,30.
677,16.
267,0.0
268,0.0
269,26.6433478497495
270,9.719098312154353E-003
303,0.0
304,0.0
305,26.5794416225448
306,9.720424656358449E-003
339,0.0
340,0.0
341,28.0461286687156
342,9.709307365270162E-003
375,0.0
376,0.0
377,27.9901987152501
378,9.709766668279114E-003
411,0.0
412,0.0
413,22.4039889191003
414,9.416878557248563E-003
415,0.0
416,0.0
417,0.0
418,0.0
419,0.0
441,0.0
463,0.0
465,0.0
467,0.0
469,0.0
471,0.0
473,0.0
486,0.0
531,0.0
536,0.0
541,0.0
2,1, 6,16, 0, 4,15.00,30.00,Tuesday        
6,21.95
676,30.
677,16.
267,0.0
268,0.0
269,26.5853923959076
270,9.687204068344356E-003
303,0.0
304,0.0
305,26.5224932291614
306,9.688469645888336E-003
339,0.0
340,0.0
341,27.9548952521509
342,9.676900966114349E-003
375,0.0
376,0.0
377,27.8995449133221
378,9.677370942238386E-003
411,0.0
412,0.0
413,22.323293725369
414,9.405894128579716E-003
415,0.0
416,0.0
417,0.0
418,0.0
419,0.0
441,0.0
463,0.0
465,0.0
467,0.0
469,0.0
471,0.0
473,0.0
486,0.0
531,0.0
536,0.0
541,0.0
2,1, 6,16, 0, 4,30.00,45.00,Tuesday        
6,21.825
676,30.
677,16.
267,0.0
268,0.0
269,26.5303328213312
270,9.659605731568788E-003
303,0.0
304,0.0
305,26.4683772354196
306,9.660806066034857E-003
339,0.0
340,0.0
341,27.8662218906124
342,9.649078643836049E-003
375,0.0
376,0.0
377,27.8114582246254
378,9.649549517142829E-003
411,0.0
412,0.0
413,22.2559344207168
414,9.404735285687967E-003
415,0.0
416,0.0
417,0.0
418,0.0
419,0.0
441,0.0
463,0.0
465,0.0
467,0.0
469,0.0
471,0.0
473,0.0
486,0.0
531,0.0
536,0.0
541,0.0
2,1, 6,16, 0, 4,45.00,60.00,Tuesday        
6,21.7
676,30.
677,16.
267,0.0
268,0.0
269,26.4763170485203
270,9.635878238288690E-003
303,0.0
304,0.0
305,26.4152689870539
306,9.637010526543203E-003
339,0.0
340,0.0
341,27.7791086136964
342,9.625357524380091E-003
375,0.0
376,0.0
377,27.7249392503665
378,9.625821525471503E-003
411,0.0
412,0.0
413,22.1916384673206
414,9.409260390125275E-003
415,0.0
416,0.0
417,0.0
418,0.0
419,0.0
441,0.0
463,0.0
465,0.0
467,0.0
469,0.0
471,0.0
473,0.0
486,0.0
531,0.0
536,0.0
541,0.0
2,1, 6,16, 0, 5, 0.00,15.00,Tuesday        
6,21.425
676,30.
677,16.
267,0.0
268,0.0
269,26.4154120648
270,9.615203748691604E-003
303,0.0
304,0.0
305,26.3552821247265
306,9.616267040642475E-003
339,0.0
340,0.0
341,27.68671840937
342,9.604856086230506E-003
375,0.0
376,0.0
377,27.6331776201095
378,9.605307702911734E-003
411,0.0
412,0.0
413,22.1001192174723
414,9.415420214337696E-003
415,0.0
416,0.0
417,0.0
418,0.0
419,0.0
441,0.0
463,0.0
465,0.0
467,0.0
469,0.0
471,0.0
473,0.0
486,0.0
531,0.0
536,0.0
541,0.0
2,1, 6,16, 0, 5,15.00,30.00,Tuesday        
6,21.15
676,30.
677,16.
267,0.0
268,0.0
269,26.3661043928351
270,9.596851198086627E-003
303,0.0
304,0.0
305,26.3136947915016
306,9.597845952617087E-003
339,0.0
340,0.0
341,27.6128930677079
342,9.586789022702517E-003
375,0.0
376,0.0
377,27.5689206097492
378,9.587224397992559E-003
411,0.0
412,0.0
413,21.9804826573022
414,9.420726626759888E-003
415,0.0
416,0.0
417,0.0
418,0.0
419,0.0
441,0.0
463,0.0
465,0.0
467,0.0
469,0.0
471,0.0
473,0.0
486,0.0
531,0.0
536,0.0
541,0.0
2,1, 6,16, 0, 5,30.00,45.00,Tuesday        
6,20.875
676,30.
677,16.
267,0.0
268,0.0
269,26.3533736197993
270,9.580241450236924E-003
303,0.0
304,0.0
305,26.334927496191
306,9.581166847666070E-003
339,0.0
340,0.0
341,27.5847745272622
342,9.570534188506695E-003
375,0.0
376,0.0
377,27.5841721462983
378,9.570947848257794E-003
411,0.0
412,0.0
413,21.8460694977763
414,9.424014128302143E-003
415,0.0
416,0.0
417,0.0
418,0.0
419,0.0
441,0.0
463,0.0
465,0.0
467,0.0
469,0.0
471,0.0
473,0.0
486,0.0
531,0.0
536,0.0
541,0.0
2,1, 6,16, 0, 5,45.00,60.00,Tuesday        
6,20.6
676,30.
677,16.
267,0.0
268,0.0
269,26.3799876860666
270,9.564897605591535E-003
303,0.0
304,0.0
305,26.4159270070243
306,9.565746111206511E-003
339,0.0
340,0.0
341,27.6050197570263
342,9.555581486538154E-003
375,0.0
376,0.0
377,27.6748677739241
378,9.555959918531523E-003
411,0.0
412,0.0
413,21.7074705570508
414,9.424828503931504E-003
415,0.0
416,0.0
417,0.0
418,0.0
419,0.0
441,0.0
463,0.0
465,0.0
467,0.0
469,0.0
471,0.0
473,0.0
486,0.0
531,0.0
536,0.0
541,0.0
2,1, 6,16, 0, 6, 0.00,15.00,Tuesday        
6,20.875
676,30.
677,16.
267,0.0
268,0.0
269,26.4569559675814
270,9.559718577500318E-003
303,0.0
304,0.0
305,26.5465201380156
306,9.560488984174611E-003
339,0.0
340,0.0
341,27.6865082150415
342,9.551160805602320E-003
375,0.0
376,0.0
377,27.8292069168746
378,9.551505624661012E-003
411,0.0
412,0.0
413,21.6687486892572
414,9.460384833651423E-003
415,0.0
416,0.0
417,0.0
418,0.0
419,0.0
441,0.0
463,0.0
465,0.0
467,0.0
469,0.0
471,0.0
473,0.0
486,0.0
531,0.0
536,0.0
541,0.0
2,1, 6,16, 0, 6,15.00,30.00,Tuesday        
6,21.15
676,30.
677,16.
267,0.0
268,0.0
269,26.5743495030582
270,9.569600217068319E-003
303,0.0
304,0.0
305,26.7032414633129
306,9.570326524082533E-003
339,0.0
340,0.0
341,27.8207180791824
342,9.562324757475215E-003
375,0.0
376,0.0
377,28.0279060152336
378,9.562688012893719E-003
411,0.0
412,0.0
413,21.7303933332838
414,9.541606107881932E-003
415,0.0
416,0.0
417,0.0
418,0.0
419,0.0
441,0.0
463,0.0
465,0.0
467,0.0
469,0.0
471,0.0
473,0.0
486,0.0
531,0.0
536,0.0
541,0.0
2,1, 6,16, 0, 6,30.00,45.00,Tuesday        
6,21.425
676,30.
677,16.
267,0.0
268,0.0
269,26.7176059606517
270,9.595204125509823E-003
303,0.0
304,0.0
305,26.8858727684293
306,9.595956915658864E-003
339,0.0
340,0.0
341,28.0022490633854
342,9.589725054390642E-003
375,0.0
376,0.0
377,28.2655556065149
378,9.590213489859787E-003
411,0.0
412,0.0
413,21.8426172249248
414,9.659130061866332E-003
415,0.0
416,0.0
417,0.0
418,0.0
419,0.0
441,0.0
463,0.0
465,0.0
467,0.0
469,0.0
471,0.0
473,0.0
486,0.0
531,0.0
536,0.0
541,0.0
2,1, 6,16, 0, 6,45.00,60.00,Tuesday        
6,21.7
676,30.
677,16.
267,0.0
268,0.0
269,26.9012523227544
270,9.635329196804840E-003
303,0.0
304,0.0
305,27.1079602831518
306,9.636207736869748E-003
339,0.0
340,0.0
341,28.2413330210236
342,9.632099499553511E-003
375,0.0
376,0.0
377,28.556934608137
378,9.632857853275128E-003
411,0.0
412,0.0
413,21.9667921383192
414,9.799424202964127E-003
415,0.0
416,0.0
417,0.0
418,0.0
419,0.0
441,0.0
463,0.0
465,0.0
467,0.0
469,0.0
471,0.0
473,0.0
486,0.0
531,0.0
536,0.0
541,0.0
2,1, 6,16, 0, 7, 0.00,15.00,Tuesday        
6,22.25
676,22.
677,20.
267,0.0
268,0.0
269,27.0758327175192
270,9.660377298902675E-003
303,0.0
304,0.0
305,27.2981660600357
306,9.661424955873105E-003
339,0.0
340,0.0
341,28.4726841963697
342,9.658349981142185E-003
375,0.0
376,0.0
377,28.8134689655524
378,9.659378502830917E-003
411,0.0
412,0.0
413,22.082359326056
414,9.881127438246474E-003
415,0.0
416,0.0
417,0.0
418,0.0
419,0.0
441,0.0
463,0.0
465,0.0
467,0.0
469,0.0
471,0.0
473,0.0
486,0.0
531,0.0
536,0.0
541,0.0
2,1, 6,16, 0, 7,15.00,30.00,Tuesday        
6,22.8
676,22.5
677,20.
267,0.0
268,0.0
269,27.3778321960744
270,9.734153813931192E-003
303,0.0
304,0.0
305,27.619625609941
306,9.735645209956328E-003
339,0.0
340,0.0
341,28.8775712966234
342,9.735802472768305E-003
375,0.0
376,0.0
377,29.2517279980906
378,9.737568312018935E-003
411,0.0
412,0.0
413,22.3408730923557
414,1.010116592831100E-002
415,0.0
416,0.0
417,0.0
418,0.0
419,0.0
441,0.0
463,0.0
465,0.0
467,0.0
469,0.0
471,0.0
473,0.0
486,0.0
531,0.0
536,0.0
541,0.0
2,1, 6,16, 0, 7,30.00,45.00,Tuesday        
6,23.35
676,23.6
677,20.
267,0.0
268,0.0
269,27.6373043771234
270,9.821186572963280E-003
303,0.0
304,0.0
305,27.8790852064416
306,9.823232761609511E-003
339,0.0
340,0.0
341,29.245090029677
342,9.827095917190293E-003
375,0.0
376,0.0
377,29.6218259984897
378,9.829762213185681E-003
411,0.0
412,0.0
413,22.5952475207129
414,1.032361875380264E-002
415,0.0
416,0.0
417,0.0
418,0.0
419,0.0
441,0.0
463,0.0
465,0.0
467,0.0
469,0.0
471,0.0
473,0.0
486,0.0
531,0.0
536,0.0
541,0.0
2,1, 6,16, 0, 7,45.00,60.00,Tuesday        
6,23.9
676,24.7
677,20.
267,0.0
268,0.0
269,27.9102759645317
270,9.920150009135115E-003
303,0.0
304,0.0
305,28.1144449250094
306,9.922783610085674E-003
339,0.0
340,0.0
341,29.6242738167428
342,9.930895597117677E-003
375,0.0
376,0.0
377,29.9881107807425
378,9.934535257800310E-003
411,0.0
412,0.0
413,22.8505444534345
414,1.054743353898489E-002
415,0.0
416,0.0
417,0.0
418,0.0
419,0.0
441,0.0
463,0.0
465,0.0
467,0.0
469,0.0
471,0.0
473,0.0
486,0.0
531,0.0
536,0.0
541,0.0
2,1, 6,16, 0, 8, 0.00,15.00,Tuesday        
6,24.175
676,25.8
677,20.
267,0.0
268,4280.87231447967
269,26.0472378666814
270,9.762048295416268E-003
303,0.0
304,5717.55976498528
305,26.0274728930794
306,9.720806858082388E-003
339,0.0
340,7535.60176853156
341,26.2963667011241
342,9.771486471093492E-003
375,0.0
376,8011.63434106034
377,26.5357768125169
378,9.792258318844893E-003
411,0.0
412,0.0
413,22.8009290702717
414,1.065442145524835E-002
415,0.445972269886761
416,0.590812470337162
417,0.656167323565745
418,0.719044767309879
419,6448.12401323607
441,5640.83365255473
463,8066.65221758628
465,7077.1265147031
467,10703.8915288653
469,9788.56553952359
471,11157.7986153764
473,10257.9924438824
486,0.0
531,0.0
536,0.0
541,0.0
2,1, 6,16, 0, 8,15.00,30.00,Tuesday        
6,24.45
676,26.
677,20.
267,0.0
268,2660.11419886434
269,26.0054854085474
270,9.588574117582391E-003
303,0.0
304,2836.57538852129
305,26.0030218022855
306,9.512403745912900E-003
339,0.0
340,4580.76837519416
341,26.0380347625075
342,9.505373727842730E-003
375,0.0
376,4707.74539307211
377,26.0656008214919
378,9.510109071516525E-003
411,0.0
412,0.0
413,22.6066895880139
414,1.065631176207662E-002
415,0.269445937279306
416,0.296690654330818
417,0.396114833941352
418,0.429596881413841
419,3810.29345701126
441,3226.51596284043
463,3953.43521711757
465,3360.37033081408
467,6238.43820004753
469,5323.66933212673
471,6433.17912374266
473,5507.69880533213
486,0.0
531,0.0
536,0.0
541,0.0
2,1, 6,16, 0, 8,30.00,45.00,Tuesday        
6,24.725
676,26.
677,20.
267,0.0
268,2886.22205249282
269,26.0002664356097
270,9.439631768521285E-003
303,0.0
304,3046.19639803131
305,26.0000155307275
306,9.354360219868713E-003
339,0.0
340,4556.05687908105
341,26.0032632898826
342,9.273919378409363E-003
375,0.0
376,4638.62691764397
377,26.0054098079139
378,9.263109679473592E-003
411,0.0
412,0.0
413,22.4677662349764
414,1.063806233619217E-002
415,0.286080121683412
416,0.312973648500975
417,0.384434988449676
418,0.409081334881594
419,4019.73611850773
441,3445.79273308803
463,4142.44737123101
465,3570.88227071025
467,5993.95859395018
469,5190.70486631769
471,6055.7884136796
473,5244.07375680484
486,0.0
531,0.0
536,0.0
541,0.0
2,1, 6,16, 0, 8,45.00,60.00,Tuesday        
6,25.
676,26.
677,20.
267,0.0
268,2578.59778290048
269,25.9999696863825
270,9.340838182102493E-003
303,0.0
304,2654.20581283448
305,25.9999002805446
306,9.258655963735743E-003
339,0.0
340,3950.36765799041
341,26.0007254279876
342,9.134759600434731E-003
375,0.0
376,4089.07557425397
377,26.0012418344113
378,9.114556682985477E-003
411,0.0
412,0.0
413,22.4098308645925
414,1.062610537302419E-002
415,0.260078393089714
416,0.278015721688275
417,0.337375783589576
418,0.3634350011346
419,3634.98682679942
441,3148.15228800564
463,3659.52138915767
465,3189.32266597883
467,5224.51641818396
469,4589.88220781251
471,5341.99205032361
473,4695.41373422074
486,0.0
531,0.0
536,0.0
541,0.0
2,1, 6,16, 0, 9, 0.00,15.00,Tuesday        
6,25.425
676,26.
677,20.
267,0.0
268,4028.68407971237
269,25.9999497431912
270,9.247206212726575E-003
303,0.0
304,4069.81300760266
305,25.9999275472879
306,9.172916530378347E-003
339,0.0
340,5416.68036477844
341,26.0001342611396
342,9.026487134924120E-003
375,0.0
376,5472.53274896081
377,26.0002454186221
378,9.003404527120848E-003
411,0.0
412,0.0
413,22.3976192076199
414,1.062181447389629E-002
415,0.379667286834508
416,0.401273824524314
417,0.443522252832144
418,0.468508944096901
419,5271.73095304846
441,4613.53659512369
463,5247.95416385254
465,4620.37634621293
467,6815.75182024149
469,6070.01460203392
471,6832.24030194369
473,6091.79244264516
486,0.0
531,0.0
536,0.0
541,0.0
2,1, 6,16, 0, 9,15.00,30.00,Tuesday        
6,25.85
676,26.
677,20.
267,0.0
268,4219.98933584811
269,25.9997381404999
270,9.161356060585945E-003
303,0.0
304,4215.53550296912
305,25.9997217640909
306,9.096187064213918E-003
339,0.0
340,5652.70078705557
341,25.9997326647169
342,8.935078705922939E-003
375,0.0
376,5637.50141271903
377,25.9997380938024
378,8.913181823438599E-003
411,0.0
412,0.0
413,22.3995908431664
414,1.062125789502726E-002
415,0.395365033255362
416,0.414078091262948
417,0.459981438359651
418,0.480304677802328
419,5454.31598321238
441,4821.52432807353
463,5381.68469817074
465,4782.84378391411
467,7019.86939774041
469,6322.52042683578
471,6955.52103897331
473,6273.08880239059
486,0.0
531,0.0
536,0.0
541,0.0
2,1, 6,16, 0, 9,30.00,45.00,Tuesday        
6,26.275
676,26.
677,20.
267,0.0
268,4387.57979679308
269,25.9997107177899
270,9.089409316499724E-003
303,0.0
304,4330.03081163848
305,25.9997050612003
306,9.033988050665792E-003
339,0.0
340,5857.92078962205
341,25.9996520401731
342,8.861224592652520E-003
375,0.0
376,5770.72955401058
377,25.9996428562162
378,8.842878333109559E-003
411,0.0
412,0.0
413,22.4021439914956
414,1.062168387195204E-002
415,0.409169428125956
416,0.424295525091629
417,0.47449421314744
418,0.490129528600488
419,5609.25337622836
441,5005.53218987928
463,5481.17262508398
465,4913.79676786626
467,7194.12679222708
469,6544.13215432772
471,7051.88331030047
473,6422.709428852
486,0.0
531,0.0
536,0.0
541,0.0
2,1, 6,16, 0, 9,45.00,60.00,Tuesday        
6,26.7
676,26.
677,20.
267,0.0
268,4539.02012129825
269,25.9997219368826
270,9.032800017248491E-003
303,0.0
304,4420.56518473108
305,25.9997265225501
306,8.987809885920841E-003
339,0.0
340,6039.9075314601
341,25.9996601944767
342,8.805430443579555E-003
375,0.0
376,5874.25273535263
377,25.9996568430525
378,8.792203586372831E-003
411,0.0
412,0.0
413,22.4030997016769
414,1.062205614433491E-002
415,0.421900948182323
416,0.432746955184305
417,0.487707371271234
418,0.498181601390444
419,5749.23876568643
441,5173.53069762832
463,5558.45515846643
465,5020.92120949292
467,7349.27432497443
469,6742.7349204298
471,7124.74761192008
473,6542.88198222558
486,0.0
531,0.0
536,0.0
541,0.0
2,1, 6,16, 0,10, 0.00,15.00,Tuesday        
6,26.975
676,26.
677,20.
267,0.0
268,4701.25333615182
269,25.9997403930032
270,9.007355288724117E-003
303,0.0
304,4515.34204309046
305,25.9997533757555
306,8.973891376506532E-003
339,0.0
340,6230.0659399664
341,25.9996888306721
342,8.782004589484438E-003
375,0.0
376,5980.19853982552
377,25.9996944614592
378,8.775446937958828E-003
411,0.0
412,0.0
413,22.4038044581126
414,1.062221559459222E-002
415,0.435148837886662
416,0.441224842175529
417,0.501288188812
418,0.506249798497812
419,5905.6565370623
441,5346.49697571684
463,5645.89890959556
465,5126.4563641593
467,7522.89162597568
469,6943.68909925977
471,7211.45828750446
473,6659.65493700186
486,0.0
531,0.0
536,0.0
541,0.0
2,1, 6,16, 0,10,15.00,30.00,Tuesday        
6,27.25
676,26.
677,20.
267,0.0
268,4818.68939276264
269,25.9996931390322
270,8.996468505371714E-003
303,0.0
304,4559.0868243431
305,25.9997133693172
306,8.975287553202666E-003
339,0.0
340,6371.00478581072
341,25.9996387492149
342,8.773660529720383E-003
375,0.0
376,6031.03401461849
377,25.9996531883988
378,8.774836520782063E-003
411,0.0
412,0.0
413,22.4053780666543
414,1.062224937705000E-002
415,0.445467739190998
416,0.446079420259638
417,0.512178166106642
418,0.511054963840392
419,6025.8118916053
441,5474.70484882988
463,5691.00582320259
465,5180.98890998246
467,7661.01142290436
469,7095.46211775836
471,7257.2978677527
473,6721.34579073114
486,0.0
531,0.0
536,0.0
541,0.0
2,1, 6,16, 0,10,30.00,45.00,Tuesday        
6,27.525
676,26.
677,20.
267,0.0
268,4892.0098904552
269,25.99966431756
270,8.991985020796275E-003
303,0.0
304,4556.32203492282
305,25.9996913977673
306,8.983383192561978E-003
339,0.0
340,6459.5185197384
341,25.9996074835631
342,8.772053231709202E-003
375,0.0
376,6027.79100264109
377,25.999630232416
378,8.781524733646949E-003
411,0.0
412,0.0
413,22.4080589559593
414,1.062224188402179E-002
415,0.452549485443382
416,0.447300827775781
417,0.519704846401066
418,0.512194783118654
419,6103.67868814343
441,5558.73283244189
463,5691.75883491726
465,5188.94563060355
467,7750.94132659378
469,7194.71212406306
471,7253.84716077393
473,6728.85792199399
486,0.0
531,0.0
536,0.0
541,0.0
2,1, 6,16, 0,10,45.00,60.00,Tuesday        
6,27.8
676,26.
677,20.
267,0.0
268,4946.00735771079
269,25.9996616980496
270,8.992405097196676E-003
303,0.0
304,4535.86893639749
305,25.9996946913526
306,8.996408258664554E-003
339,0.0
340,6522.43008096917
341,25.9996057748586
342,8.775560039830861E-003
375,0.0
376,6001.44178768554
377,25.9996355739388
378,8.793591517523604E-003
411,0.0
412,0.0
413,22.411618145663
414,1.062223097346607E-002
415,0.458225199995634
416,0.447160839062804
417,0.525583939701662
418,0.511778240879349
419,6163.10154116005
441,5623.43600609112
463,5676.13690077591
465,5179.20776928482
467,7817.09349607069
469,7268.34950359372
471,7229.70579900004
473,6713.2476449991
486,0.0
531,0.0
536,0.0
541,0.0
2,1, 6,16, 0,11, 0.00,15.00,Tuesday        
6,28.075
676,26.
677,20.
267,0.0
268,5024.97370118931
269,25.9996689571333
270,9.015771087653161E-003
303,0.0
304,4539.7346056153
305,25.9997069381266
306,9.032798290926644E-003
339,0.0
340,6609.93503725623
341,25.9996154073507
342,8.801324125702129E-003
375,0.0
376,5999.88315689156
377,25.9996509927694
378,8.828479087063731E-003
411,0.0
412,0.0
413,22.4157550324706
414,1.062222539275392E-002
415,0.465994930654449
416,0.449164217969591
417,0.53332539084931
418,0.51332248126308
419,6250.51714230941
441,5713.07559149403
463,5687.93974897375
465,5193.75511476214
467,7910.916886355
469,7366.54426466151
471,7233.72667557359
473,6722.38908078497
486,0.0
531,0.0
536,0.0
541,0.0
2,1, 6,16, 0,11,15.00,30.00,Tuesday        
6,28.35
676,26.
677,20.
267,0.0
268,5061.80110782415
269,25.9996123670745
270,9.046924391161065E-003
303,0.0
304,4502.67962208754
305,25.9996588715811
306,9.077312997155577E-003
339,0.0
340,6653.79316696187
341,25.9995491548724
342,8.833956385914936E-003
375,0.0
376,5956.80896934472
377,25.9995943731944
378,8.870695055304682E-003
411,0.0
412,0.0
413,22.4202456055188
414,1.062222382512904E-002
415,0.470930465859308
416,0.448199609072556
417,0.538575624690974
418,0.512332412535129
419,6303.16649787803
441,5760.6069221783
463,5665.51715931739
465,5167.40767127425
467,7971.87769899594
469,7421.11711777343
471,7206.27473609736
473,6690.03553498796
486,0.0
531,0.0
536,0.0
541,0.0
2,1, 6,16, 0,11,30.00,45.00,Tuesday        
6,28.625
676,26.
677,20.
267,0.0
268,5083.02850814685
269,25.9995735179186
270,9.077971928211664E-003
303,0.0
304,4462.36846384128
305,25.9996278743329
306,9.121608511635683E-003
339,0.0
340,6680.12983134372
341,25.9995016275544
342,8.865833242569874E-003
375,0.0
376,5910.97115303378
377,25.9995558216182
378,8.912194522920799E-003
411,0.0
412,0.0
413,22.424943502779
414,1.062222384222452E-002
415,0.474803615464389
416,0.447134312466501
417,0.542770458572558
418,0.511317893752486
419,6342.60916728462
441,5792.46180026868
463,5643.03763086068
465,5137.7303142539
467,8018.34593804108
469,7458.06653965318
471,7179.8882481696
473,6654.82028578552
486,0.0
531,0.0
536,0.0
541,0.0
2,1, 6,16, 0,11,45.00,60.00,Tuesday        
6,28.9
676,26.
677,20.
267,0.0
268,5100.23287703745
269,25.9995592504578
270,9.107720873259196E-003
303,0.0
304,4424.64388933056
305,25.9996188714608
306,9.164209068988703E-003
339,0.0
340,6701.95043341074
341,25.9994829472797