Program Version,EnergyPlus-Windows-64 8.1.0.009, YMD=2014.02.19 15:35
1,5,Environment Title[],Latitude[deg],Longitude[deg],Time Zone[],Elevation[m]
2,6,Day of Simulation[],Month[],Day of Month[],DST Indicator[1=yes 0=no],Hour[],StartMinute[],EndMinute[],DayType
3,3,Cumulative Day of Simulation[],Month[],Day of Month[],DST Indicator[1=yes 0=no],DayType  ! When Daily Report Variables Requested
4,2,Cumulative Days of Simulation[],Month[]  ! When Monthly Report Variables Requested
5,1,Cumulative Days of Simulation[] ! When Run Period Report Variables Requested
6,1,Environment,Site Outdoor Air Drybulb Temperature [C] !TimeStep
3911,1,COOLSYS1 DEMAND INLET PIPE,Pipe Inlet Temperature [C] !TimeStep
3912,1,COOLSYS1 DEMAND INLET PIPE,Pipe Outlet Temperature [C] !TimeStep
3913,1,COOLSYS1 DEMAND OUTLET PIPE,Pipe Inlet Temperature [C] !TimeStep
3914,1,COOLSYS1 DEMAND OUTLET PIPE,Pipe Outlet Temperature [C] !TimeStep
4168,1,Whole Building,Facility Total Building Electric Demand Power [W] !TimeStep
4169,1,Whole Building,Facility Total HVAC Electric Demand Power [W] !TimeStep
4170,1,Facility,Facility Thermal Comfort ASHRAE 55 Simple Model Summer Clothes Not Comfortable Time [hr] !TimeStep
4171,1,Facility,Facility Thermal Comfort ASHRAE 55 Simple Model Winter Clothes Not Comfortable Time [hr] !TimeStep
4172,1,Facility,Facility Thermal Comfort ASHRAE 55 Simple Model Summer or Winter Clothes Not Comfortable Time [hr] !TimeStep
4379,1,CAV_1_FAN,Fan Electric Power [W] !TimeStep
4411,1,CAV_2_FAN,Fan Electric Power [W] !TimeStep
4413,1,VAV_1_FAN,Fan Electric Power [W] !TimeStep
4415,1,VAV_2_FAN,Fan Electric Power [W] !TimeStep
4527,1,COOLSYS1 CHILLER,Plant Temperature Source Component Mass Flow Rate [kg/s] !TimeStep
4528,1,COOLSYS1 CHILLER,Plant Temperature Source Component Inlet Temperature [C] !TimeStep
4529,1,COOLSYS1 CHILLER,Plant Temperature Source Component Outlet Temperature [C] !TimeStep
4530,1,COOLSYS1 CHILLER,Plant Temperature Source Component Heat Transfer Rate [W] !TimeStep
End of Data Dictionary
1,Chicago Ohare Intl Ap IL USA TMY3 WMO#=725300,  41.98, -87.92,  -6.00, 201.00
2,1, 6, 8, 1, 1, 0.00, 1.00,Monday         
6,16.2016666666667
4170,1.666666666666667E-002
4171,1.666666666666667E-002
4172,1.666666666666667E-002
3911,6.79739984095171
3912,6.81056803832817
3913,12.0363814451889
3914,11.9778247972345
4168,212494.446168643
4169,117322.723244618
4379,39030.3769225229
4411,36386.4853049432
4413,15576.1716366527
4415,26313.8198445735
4527,60.
4528,11.9593703870692
4529,6.7
4530,-1323979.17500371
2,1, 6, 8, 1, 1, 1.00, 2.00,Monday         
6,16.3033333333333
4170,1.666666666666667E-002
4171,1.666666666666667E-002
4172,1.666666666666667E-002
3911,6.79570268931891
3912,6.81055025559895
3913,12.072858381608
3914,11.9791969760686
4168,212498.677486159
4169,117322.599462492
4379,39030.3769225229
4411,36386.4853049432
4413,15576.1716366527
4415,26313.8198445735
4527,60.
4528,11.9606368888651
4529,6.76693014129108
4530,-1307419.99455116
2,1, 6, 8, 1, 1, 2.00, 3.00,Monday         
6,16.405
4170,1.666666666666667E-002
4171,1.666666666666667E-002
4172,1.666666666666667E-002
3911,6.79391242145674
3912,6.81063627483071
3913,11.7908940812551
3914,11.980435377103
4168,212502.733406028
4169,117322.519082425
4379,39030.3769225229
4411,36386.4853049432
4413,15576.1716366527
4415,26313.8198445735
4527,53.6208716360241
4528,11.9618377169467
4529,6.7
4530,-1183770.37197537
2,1, 6, 8, 1, 1, 3.00, 4.00,Monday         
6,16.5066666666667
4170,1.666666666666667E-002
4171,1.666666666666667E-002
4172,1.666666666666667E-002
3911,6.78887744704639
3912,6.81070170904494
3913,11.8167270272183
3914,11.9816779574112
4168,212506.823987288
4169,117322.468343945
4379,39030.3769225229
4411,36386.4853049432
4413,15576.1716366527
4415,26313.8198445735
4527,53.8532848983106
4528,11.9629744106739
4529,6.7
4530,-1189158.11681594
2,1, 6, 8, 1, 1, 4.00, 5.00,Monday         
6,16.6083333333333
4170,1.666666666666667E-002
4171,1.666666666666667E-002
4172,1.666666666666667E-002
3911,6.78412051971429
3912,6.81072851539523
3913,11.8426244397415
3914,11.9829259341981
4168,212510.876505335
4169,117322.43815906
4379,39030.3769225229
4411,36386.4853049432
4413,15576.1716366527
4415,26313.8198445735
4527,54.0849911384601
4528,11.9641223144171
4529,6.7
4530,-1194535.00681526
2,1, 6, 8, 1, 1, 5.00, 6.00,Monday         
6,16.71
4170,1.666666666666667E-002
4171,1.666666666666667E-002
4172,1.666666666666667E-002
3911,6.77962738205902
3912,6.81068767541147
3913,11.86799879097
3914,11.9841803628751
4168,212515.009788294
4169,117322.422378991
4379,39030.3769225229
4411,36386.4853049432
4413,15576.1716366527
4415,26313.8198445735
4527,54.3220314738852
4528,11.9652812154107
4529,6.7
4530,-1200034.47100914
2,1, 6, 8, 1, 1, 6.00, 7.00,Monday         
6,16.8116666666667
4170,1.666666666666667E-002
4171,1.666666666666667E-002
4172,1.666666666666667E-002
3911,6.77538469907659
3912,6.81053753098016
3913,11.8939146830136
3914,11.9854394377512
4168,212519.098539429
4169,117322.416771509
4379,39030.3769225229
4411,36386.4853049432
4413,15576.1716366527
4415,26313.8198445735
4527,54.5517310247908
4528,11.966450813283
4529,6.7
4530,-1205376.48677431
2,1, 6, 8, 1, 1, 7.00, 8.00,Monday         
6,16.9133333333333
4170,1.666666666666667E-002
4171,1.666666666666667E-002
4172,1.666666666666667E-002
3911,6.77137995143526
3912,6.81022364877066
3913,11.9197486353133
3914,11.9866943986314
4168,212523.262687532
4169,117322.418387796
4379,39030.3769225229
4411,36386.4853049432
4413,15576.1716366527
4415,26313.8198445735
4527,54.78061027497
4528,11.9676304413391
4529,6.7
4530,-1210704.93280916
2,1, 6, 8, 1, 1, 8.00, 9.00,Monday         
6,17.015
4170,1.666666666666667E-002
4171,1.666666666666667E-002
4172,1.666666666666667E-002
3911,6.76760094890728
3912,6.80968256972305
3913,11.9454678572231
3914,11.987923007103
4168,212527.378838544
4169,117322.425155439
4379,39030.3769225229
4411,36386.4853049432
4413,15576.1716366527
4415,26313.8198445735
4527,55.0076372843496
4528,11.9688185796337
4529,6.7
4530,-1215996.66300655
2,1, 6, 8, 1, 1, 9.00,10.00,Monday         
6,17.1166666666667
4170,1.666666666666667E-002
4171,1.666666666666667E-002
4172,1.666666666666667E-002
3911,6.76403608878361
3912,6.80884899125178
3913,11.9711044307266
3914,11.9890825594964
4168,212531.458749225
4169,117322.435609082
4379,39030.3769225229
4411,36386.4853049432
4413,15576.1716366527
4415,26313.8198445735
4527,55.2325562622191
4528,11.9700117928509
4529,6.7
4530,-1221245.22211894
2,1, 6, 8, 1, 1,10.00,11.00,Monday         
6,17.2183333333333
4170,1.666666666666667E-002
4171,1.666666666666667E-002
4172,1.666666666666667E-002
3911,6.76067429412351
3912,6.80766526409904
3913,11.9965774332566
3914,11.9901045219529
4168,212535.61891194
4169,117322.448708215
4379,39030.3769225229
4411,36386.4853049432
4413,15576.1716366527
4415,26313.8198445735
4527,55.4553301842223
4528,11.9712034174701
4529,6.7
4530,-1226448.22362502
2,1, 6, 8, 1, 1,11.00,12.00,Monday         
6,17.32
4170,1.666666666666667E-002
4171,1.666666666666667E-002
4172,1.666666666666667E-002
3911,6.75750498977639
3912,6.80609088222444
3913,12.0219621744007
3914,11.9908934201843
4168,212539.842239028
4169,117322.463711845
4379,39030.3769225229
4411,36386.4853049432
4413,15576.1716366527
4415,26313.8198445735
4527,55.6758046985479
4528,11.9723820994653
4529,6.7
4530,-1231599.56424862
2,1, 6, 8, 1, 1,12.00,13.00,Monday         
6,17.4216666666667
4170,1.666666666666667E-002
4171,1.666666666666667E-002
4172,1.666666666666667E-002
3911,6.75451809365959
3912,6.80410952255453
3913,12.0471246853358
3914,11.9913321172087
4168,212543.90060477
4169,117322.480091254
4379,39030.3769225229
4411,36386.4853049432
4413,15576.1716366527
4415,26313.8198445735
4527,55.8935157462797
4528,11.9735305209565
4529,6.7
4530,-1236684.84510247
2,1, 6, 8, 1, 1,13.00,14.00,Monday         
6,17.5233333333333
4170,1.666666666666667E-002
4171,1.666666666666667E-002
4172,1.666666666666667E-002
3911,6.75170397630768
3912,6.80173188901437
3913,12.0721943354129
3914,11.9912942729686
4168,212548.046506045
4169,117322.497468708
4379,39030.3769225229
4411,36386.4853049432
4413,15576.1716366527
4415,26313.8198445735
4527,56.1090492310342
4528,11.9746247453371
4529,6.7
4530,-1241711.27464142
2,1, 6, 8, 1, 1,14.00,15.00,Monday         
6,17.625
4170,1.666666666666667E-002
4171,1.666666666666667E-002
4172,1.666666666666667E-002
3911,6.74905342822677
3912,6.79899412461244
3913,12.0971288921483
3914,11.9906629755944
4168,212552.26093899
4169,117322.51557414
4379,39030.3769225229
4411,36386.4853049432
4413,15576.1716366527
4415,26313.8198445735
4527,56.3226456190154
4528,11.975634555169
4529,6.7
4530,-1246676.85785196
2,1, 6, 8, 1, 1,15.00,16.00,Monday         
6,17.7266666666667
4170,1.666666666666667E-002
4171,1.666666666666667E-002
4172,1.666666666666667E-002
3911,6.74655766117877
3912,6.79595256246896
3913,12.121950278149
3914,11.989352910372
4168,212556.42243681
4169,117322.534214389
4379,39030.3769225229
4411,36386.4853049432
4413,15576.1716366527
4415,26313.8198445735
4527,56.5343256509338
4528,11.9765250321668
4529,6.7
4530,-1251573.51983406
2,1, 6, 8, 1, 1,16.00,17.00,Monday         
6,17.8283333333333
4170,1.666666666666667E-002
4171,1.666666666666667E-002
4172,1.666666666666667E-002
3911,6.74420829010342
3912,6.7926763164162
3913,12.1466118016796
3914,11.9873322670865
4168,212560.543179578
4169,117322.553251282
4379,39030.3769225229
4411,36386.4853049432
4413,15576.1716366527
4415,26313.8198445735
4527,56.7444922911041
4528,11.9772594479835
4529,6.7
4530,-1256401.09918255
2,1, 6, 8, 1, 1,17.00,18.00,Monday         
6,17.93
4170,1.666666666666667E-002
4171,1.666666666666667E-002
4172,1.666666666666667E-002
3911,6.74199730933797
3912,6.78923944952613
3913,12.1712595070719
3914,11.9846403880901
4168,212564.739931042
4169,117322.572585998
4379,39030.3769225229
4411,36386.4853049432
4413,15576.1716366527
4415,26313.8198445735
4527,56.953723891782
4528,11.9778032616829
4529,6.7
4530,-1261163.72222056
2,1, 6, 8, 1, 1,18.00,19.00,Monday         
6,18.0316666666667
4170,1.666666666666667E-002
4171,1.666666666666667E-002
4172,1.666666666666667E-002
3911,6.73991708880586
3912,6.78571413440833
3913,12.1958326771667
3914,11.9813978945547
4168,212568.889127635
4169,117322.592147879
4379,39030.3769225229
4411,36386.4853049432
4413,15576.1716366527
4415,26313.8198445735
4527,57.1621117591754
4528,11.9781287972114
4529,6.7
4530,-1265856.26501092
2,1, 6, 8, 1, 1,19.00,20.00,Monday         
6,18.1333333333333
4170,1.666666666666667E-002
4171,1.666666666666667E-002
4172,1.666666666666667E-002
3911,6.73796036771986
3912,6.78216551678105
3913,12.2203283483694
3914,11.9778072716339
4168,212573.001729202
4169,117322.611886431
4379,39030.3769225229
4411,36386.4853049432
4413,15576.1716366527
4415,26313.8198445735
4527,57.3699820262671
4528,11.9782200410347
4529,6.7
4530,-1270481.51943302
2,1, 6, 8, 1, 1,20.00,21.00,Monday         
6,18.235
4170,1.666666666666667E-002
4171,1.666666666666667E-002
4172,1.666666666666667E-002
3911,6.7361202367166
3912,6.7786485999357
3913,12.2448296505634
3914,11.9741436634504
4168,212577.193329907
4169,117322.631765595
4379,39030.3769225229
4411,36386.4853049432
4413,15576.1716366527
4415,26313.8198445735
4527,57.57784887684
4528,11.9780769437158
4529,6.7
4530,-1275050.2464407
2,1, 6, 8, 1, 1,21.00,22.00,Monday         
6,18.3366666666667
4170,1.666666666666667E-002
4171,1.666666666666667E-002
4172,1.666666666666667E-002
3911,6.73439013240256
3912,6.77520702584812
3913,12.2693230363991
3914,11.9707372635027
4168,212581.446830912
4169,117322.651759642
4379,39030.3769225229
4411,36386.4853049432
4413,15576.1716366527
4415,26313.8198445735
4527,57.7858256991202
4528,11.9777186661922
4529,6.7
4530,-1279568.98921152
2,1, 6, 8, 1, 1,22.00,23.00,Monday         
6,18.4383333333333
4170,1.666666666666667E-002
4171,1.666666666666667E-002
4172,1.666666666666667E-002
3911,6.73276383961538
3912,6.77187329092169
3913,12.293744125161
3914,11.9679497919971
4168,212585.535901256
4169,117322.671850238
4379,39030.3769225229
4411,36386.4853049432
4413,15576.1716366527
4415,26313.8198445735
4527,57.9935804197617
4528,11.9771853674723
4529,6.7
4530,-1284039.60300557
2,1, 6, 8, 1, 1,23.00,24.00,Monday         
6,18.54
4170,1.666666666666667E-002
4171,1.666666666666667E-002
4172,1.666666666666667E-002
3911,6.73123547227761
3912,6.76866979973255
3913,12.3182182228109
3914,11.9661481902335
4168,212589.710661896
4169,117322.692024339
4379,39030.3769225229
4411,36386.4853049432
4413,15576.1716366527
4415,26313.8198445735
4527,58.2017403223377
4528,11.9765383126593
4529,6.7
4530,-1288490.47897038
2,1, 6, 8, 1, 1,24.00,25.00,Monday         
6,18.6416666666667
4170,1.666666666666667E-002
4171,1.666666666666667E-002
4172,1.666666666666667E-002
3911,6.7297994610846
3912,6.76561054019233
3913,12.3426592234696
3914,11.9656789671123
4168,212593.845032497
4169,117322.712272683
4379,39030.3769225229
4411,36386.4853049432
4413,15576.1716366527
4415,26313.8198445735
4527,58.4101224829264
4528,11.9758583111848
4529,6.7
4530,-1292937.07040515
2,1, 6, 8, 1, 1,25.00,26.00,Monday         
6,18.7433333333333
4170,1.666666666666667E-002
4171,1.666666666666667E-002
4172,1.666666666666667E-002
3911,6.72845054835291
3912,6.76270280670145
3913,12.3670998990957
3914,11.9668458474033
4168,212598.055060332
4169,117322.732588713
4379,39030.3769225229
4411,36386.4853049432
4413,15576.1716366527
4415,26313.8198445735
4527,58.6189403557511
4528,11.9752426869253
4529,6.7
4530,-1297407.94937579
2,1, 6, 8, 1, 1,26.00,27.00,Monday         
6,18.845
4170,1.666666666666667E-002
4171,1.666666666666667E-002
4172,1.666666666666667E-002
3911,6.72718377345978
3912,6.75994886637109
3913,12.3915398133611
3914,11.9698928122195
4168,212602.32448703
4169,117322.752967807
4379,39030.3769225229
4411,36386.4853049432
4413,15576.1716366527
4415,26313.8198445735
4527,58.8282468966582
4528,11.9748011223288
4529,6.7
4530,-1301931.52558548
2,1, 6, 8, 1, 1,27.00,28.00,Monday         
6,18.9466666666667
4170,1.666666666666667E-002
4171,1.666666666666667E-002
4172,1.666666666666667E-002
3911,6.72605406849635
3912,6.7577044707747
3913,12.0699519733451
3914,11.9742842679069
4168,212606.428535072
4169,117322.773406723
4379,39030.3769225229
4411,36386.4853049432
4413,15576.1716366527
4415,26313.8198445735
4527,52.8743772784134
4528,11.974628779154
4529,6.7
4530,-1170127.8406259
2,1, 6, 8, 1, 1,28.00,29.00,Monday         
6,19.0483333333333
4170,1.666666666666667E-002
4171,1.666666666666667E-002
4172,1.666666666666667E-002
3911,6.725047960508
3912,6.75558266470119
3913,12.0860291014399
3914,11.9803916552593
4168,212610.616372949
4169,117322.793903205
4379,39030.3769225229
4411,36386.4853049432
4413,15576.1716366527
4415,26313.8198445735
4527,53.0016114589547
4528,11.9747886335889
4529,6.7
4530,-1172979.12361562
2,1, 6, 8, 1, 1,29.00,30.00,Monday         
6,19.15
4170,1.666666666666667E-002
4171,1.666666666666667E-002
4172,1.666666666666667E-002
3911,6.72409833046237
3912,6.7535793278476
3913,12.1021318585837
3914,11.9882439331204
4168,212614.762794788
4169,117322.814455702
4379,39030.3769225229
4411,36386.4853049432
4413,15576.1716366527
4415,26313.8198445735
4527,53.1293301877772
4528,11.9753477576883
4529,6.7
4530,-1175930.30253421
2,1, 6, 8, 1, 1,30.00,31.00,Monday         
6,19.2516666666667
4170,1.666666666666667E-002
4171,1.666666666666667E-002
4172,1.666666666666667E-002
3911,6.72320221973863
3912,6.75168939203043
3913,12.1183034311749
3914,11.9978218886137
4168,212618.983554751
4169,117322.835063168
4379,39030.3769225229
4411,36386.4853049432
4413,15576.1716366527
4415,26313.8198445735
4527,53.2576101789221
4528,11.9763862287326
4529,6.7
4530,-1179001.6140601
2,1, 6, 8, 1, 1,31.00,32.00,Monday         
6,19.3533333333333
4170,1.666666666666667E-002
4171,1.666666666666667E-002
4172,1.666666666666667E-002
3911,6.7223568377066
3912,6.74990705356971
3913,12.1344956849366
3914,12.0090586340899
4168,212623.156252182
4169,117322.855724913
4379,39030.3769225229
4411,36386.4853049432
4413,15576.1716366527
4415,26313.8198445735
4527,53.3862292115223
4528,11.9779774415312
4529,6.7
4530,-1182205.35820769
2,1, 6, 8, 1, 1,32.00,33.00,Monday         
6,19.455
4170,1.666666666666667E-002
4171,1.666666666666667E-002
4172,1.666666666666667E-002
3911,6.72155955048745
3912,6.74822594434052
3913,12.1507552820431
3914,12.0218386128631
4168,212627.398418837
4169,117322.876440506
4379,39030.3769225229
4411,36386.4853049432
4413,15576.1716366527
4415,26313.8198445735
4527,53.515443624314
4528,11.9801856065777
4529,6.7
4530,-1185562.53258866
2,1, 6, 8, 1, 1,33.00,34.00,Monday         
6,19.5566666666667
4170,1.666666666666667E-002
4171,1.666666666666667E-002
4172,1.666666666666667E-002
3911,6.72080787295614
3912,6.74663940627755
3913,12.1670005429756
3914,12.0359943660609
4168,212631.589152803
4169,117322.897209695
4379,39030.3769225229
4411,36386.4853049432
4413,15576.1716366527
4415,26313.8198445735
4527,53.6447862561147
4528,11.9830632288287
4529,6.7
4530,-1189075.61975595
2,1, 6, 8, 1, 1,34.00,35.00,Monday         
6,19.6583333333333
4170,1.666666666666667E-002
4171,1.666666666666667E-002
4172,1.666666666666667E-002
3911,6.72009945861228
3912,6.74514074169639
3913,12.1833164995958
3914,12.0513026931025
4168,212635.739954169
4169,117322.918032362
4379,39030.3769225229
4411,36386.4853049432
4413,15576.1716366527
4415,26313.8198445735
4527,53.7745358577437
4528,11.986648506606
4529,6.7
4530,-1192760.51531501
2,1, 6, 8, 1, 1,35.00,36.00,Monday         
6,19.76
4170,1.666666666666667E-002
4171,1.666666666666667E-002
4172,1.666666666666667E-002
3911,6.71943208872447
3912,6.7437235403335
3913,12.1996042356998
3914,12.0674817798656
4168,212639.859331368
4169,117322.938908482
4379,39030.3769225229
4411,36386.4853049432
4413,15576.1716366527
4415,26313.8198445735
4527,53.9043466705709
4528,11.9909626503208
4529,6.7
4530,-1196615.51490456
2,1, 6, 8, 1, 1,36.00,37.00,Monday         
6,19.8616666666667
4170,1.666666666666667E-002
4171,1.666666666666667E-002
4172,1.666666666666667E-002
3911,6.7188036608282
3912,6.74238189152473
3913,12.2159727682996
3914,12.0841929810331
4168,212644.165213892
4169,117322.876541044
4379,39030.3769225229
4411,36386.4853049432
4413,15576.1716366527
4415,26313.8198445735
4527,54.0348202943108
4528,11.9960073229004
4529,6.7
4530,-1200655.55731378
2,1, 6, 8, 1, 1,37.00,38.00,Monday         
6,19.9633333333333
4170,1.666666666666667E-002
4171,1.666666666666667E-002
4172,1.666666666666667E-002
3911,6.71821218125826
3912,6.74111060550049
3913,12.2323262387208
3914,12.1010487342881
4168,212648.300712197
4169,117322.732166157
4379,39030.3769225229
4411,36386.4853049432
4413,15576.1716366527
4415,26313.8198445735
4527,54.1652525433777
4528,12.0017624537653
4529,6.7
4530,-1204861.65907563
2,1, 6, 8, 1, 1,38.00,39.00,Monday         
6,20.065
4170,1.666666666666667E-002
4171,1.666666666666667E-002
4172,1.666666666666667E-002
3911,6.71765575671794
3912,6.73990522511662
3913,12.2487187739727
3914,12.1176293971825
4168,212652.515060326
4169,117322.608397521
4379,39030.3769225229
4411,36386.4853049432
4413,15576.1716366527
4415,26313.8198445735
4527,54.2960062648778
4528,12.0081849146775
4529,6.7
4530,-1209233.23980907
2,1, 6, 8, 1, 1,39.00,40.00,Monday         
6,20.1666666666667
4170,1.666666666666667E-002
4171,1.666666666666667E-002
4172,1.666666666666667E-002
3911,6.71713258273934
3912,6.73876201555844
3913,12.2650984712999
3914,12.1335073497607
4168,212656.685019891
4169,117322.528051434
4379,39030.3769225229
4411,36386.4853049432
4413,15576.1716366527
4415,26313.8198445735
4527,54.4267241618757
4528,12.0152085008391
4529,6.7
4530,-1213748.33762493
2,1, 6, 8, 1, 1,40.00,41.00,Monday         
6,20.2683333333333
4170,1.666666666666667E-002
4171,1.666666666666667E-002
4172,1.666666666666667E-002
3911,6.7166409356856
3912,6.73767783268346
3913,12.2815408830441
3914,12.1482770142445
4168,212660.820587033
4169,117322.477356139
4379,39030.3769225229
4411,36386.4853049432
4413,15576.1716366527
4415,26313.8198445735
4527,54.5576350504637
4528,12.0227455285348
4529,6.7
4530,-1218392.97738451
2,1, 6, 8, 1, 1,41.00,42.00,Monday         
6,20.37
4170,1.666666666666667E-002
4171,1.666666666666667E-002
4172,1.666666666666667E-002
3911,6.71617916278165
3912,6.73664998719221
3913,12.2979252456008
3914,12.1615864581415
4168,212665.034339435
4169,117322.447217448
4379,39030.3769225229
4411,36386.4853049432
4413,15576.1716366527
4415,26313.8198445735
4527,54.6888536563191
4528,12.0306902411787
4529,6.7
4530,-1223146.32314278
2,1, 6, 8, 1, 1,42.00,43.00,Monday         
6,20.4716666666667
4170,1.666666666666667E-002
4171,1.666666666666667E-002
4172,1.666666666666667E-002
3911,6.71574567765673
3912,6.73567611453239
3913,12.314339104159
3914,12.1731664284627
4168,212669.204234122
4169,117322.431483267
4379,39030.3769225229
4411,36386.4853049432
4413,15576.1716366527
4415,26313.8198445735
4527,54.8201496098339
4528,12.0389238176351
4529,6.7
4530,-1227976.58920202
2,1, 6, 8, 1, 1,43.00,44.00,Monday         
6,20.5733333333333
4170,1.666666666666667E-002
4171,1.666666666666667E-002
4172,1.666666666666667E-002
3911,6.71533895475187
3912,6.73475403855399
3913,12.3307839255865
3914,12.1828529446527
4168,212673.445247447
4169,117322.425919717
4379,39030.3769225229
4411,36386.4853049432
4413,15576.1716366527
4415,26313.8198445735
4527,54.9516845895002
4528,12.0473207275096
4529,6.7
4530,-1232858.94651619
2,1, 6, 8, 1, 1,44.00,45.00,Monday         
6,20.675
4170,1.666666666666667E-002
4171,1.666666666666667E-002
4172,1.666666666666667E-002
3911,6.7149575253613
3912,6.73388169332965
3913,12.3472205908044
3914,12.1906000941931
4168,212677.637052526
4169,117322.427577293
4379,39030.3769225229
4411,36386.4853049432
4413,15576.1716366527
4415,26313.8198445735
4527,55.0832518426239
4528,12.055755839467
4529,6.7
4530,-1237760.12587347
2,1, 6, 8, 1, 1,45.00,46.00,Monday         
6,20.7766666666667
4170,1.666666666666667E-002
4171,1.666666666666667E-002
4172,1.666666666666667E-002
3911,6.71459997612041
3912,6.73305705921539
3913,12.3636709980509
3914,12.1964818215283
4168,212681.790698561
4169,117322.434383439
4379,39030.3769225229
4411,36386.4853049432
4413,15576.1716366527
4415,26313.8198445735
4527,55.2147897270984
4528,12.0641116055529
4529,6.7
4530,-1242651.57543847
2,1, 6, 8, 1, 1,46.00,47.00,Monday         
6,20.8783333333333
4170,1.666666666666667E-002
4171,1.666666666666667E-002
4172,1.666666666666667E-002
3911,6.71426494695392
3912,6.73227812557061
3913,12.3801504922151
3914,12.2006827686187
4168,212685.914130622
4169,117322.444872946
4379,39030.3769225229
4411,36386.4853049432
4413,15576.1716366527
4415,26313.8198445735
4527,55.3464523022749
4528,12.0722847073374
4529,6.7
4530,-1247512.64147836
2,1, 6, 8, 1, 1,47.00,48.00,Monday         
6,20.98
4170,1.666666666666667E-002
4171,1.666666666666667E-002
4172,1.666666666666667E-002
3911,6.7139511315588
3912,6.73154288659906
3913,12.3966137104804
3914,12.2034798323919
4168,212690.118839933
4169,117322.458005592
4379,39030.3769225229
4411,36386.4853049432
4413,15576.1716366527
4415,26313.8198445735
4527,55.4782282657564
4528,12.0801915051092
4529,6.7
4530,-1252323.31052565
2,1, 6, 8, 1, 1,48.00,49.00,Monday         
6,21.0816666666667
4170,1.666666666666667E-002
4171,1.666666666666667E-002
4172,1.666666666666667E-002
3911,6.71365727870781
3912,6.73084933644784
3913,12.413119646535
3914,12.2052172373276
4168,212694.386974838
4169,117322.473040725
4379,39030.3769225229
4411,36386.4853049432
4413,15576.1716366527
4415,26313.8198445735
4527,55.6103858808624
4528,12.0877718927687
4529,6.7
4530,-1257075.19237461
2,1, 6, 8, 1, 1,49.00,50.00,Monday         
6,21.1833333333333
4170,1.666666666666667E-002
4171,1.666666666666667E-002
4172,1.666666666666667E-002
3911,6.71338219612611
3912,6.73019550863646
3913,12.4296164753582
3914,12.2062782866244
4168,212698.49591552
4169,117322.489449968
4379,39030.3769225229
4411,36386.4853049432
4413,15576.1716366527
4415,26313.8198445735
4527,55.7421892110847
4528,12.0949912759957
4529,6.7
4530,-1261743.03151924
2,1, 6, 8, 1, 1,50.00,51.00,Monday         
6,21.285
4170,1.666666666666667E-002
4171,1.666666666666667E-002
4172,1.666666666666667E-002
3911,6.71312475170052
3912,6.72957945026918
3913,12.446114805682
3914,12.2070570500244
4168,212702.689903205
4169,117322.5068559
4379,39030.3769225229
4411,36386.4853049432
4413,15576.1716366527
4415,26313.8198445735
4527,55.8741743397494
4528,12.101840785805
4529,6.7
4530,-1266336.26758593
2,1, 6, 8, 1, 1,51.00,52.00,Monday         
6,21.3866666666667
4170,1.666666666666667E-002
4171,1.666666666666667E-002
4172,1.666666666666667E-002
3911,6.71288387378127
3912,6.7289992511186
3913,12.4626392990097
3914,12.2079326225115
4168,212706.845226006
4169,117322.524988733
4379,39030.3769225229
4411,36386.4853049432
4413,15576.1716366527
4415,26313.8198445735
4527,56.006292236392
4528,12.1083358384887
4529,6.7
4530,-1270856.81176023
2,1, 6, 8, 1, 1,52.00,53.00,Monday         
6,21.4883333333333
4170,1.666666666666667E-002
4171,1.666666666666667E-002
4172,1.666666666666667E-002
3911,6.71265855423646
3912,6.72845305414973
3913,12.4791545954166
3914,12.2092480224601
4168,212711.075201222
4169,117322.54365554
4379,39030.3769225229
4411,36386.4853049432
4413,15576.1716366527
4415,26313.8198445735
4527,56.1384378979478
4528,12.1145132410222
4529,6.7
4530,-1275310.36943958
2,1, 6, 8, 1, 1,53.00,54.00,Monday         
6,21.59
4170,1.666666666666667E-002
4171,1.666666666666667E-002
4172,1.666666666666667E-002
3911,6.71244784891975
3912,6.72793905886854
3913,12.4956766576851
3914,12.211294860891
4168,212715.259156946
4169,117322.562718345
4379,39030.3769225229
4411,36386.4853049432
4413,15576.1716366527
4415,26313.8198445735
4527,56.2706257136676
4528,12.1204273628776
4529,6.7
4530,-1279709.57777103
2,1, 6, 8, 1, 1,54.00,55.00,Monday         
6,21.6916666666667
4170,1.666666666666667E-002
4171,1.666666666666667E-002
4172,1.666666666666667E-002
3911,6.71225087753843
3912,6.72745553027306
3913,12.5122121205708
3914,12.2143041114077
4168,212719.407321868
4169,117322.582078485
4379,39030.3769225229
4411,36386.4853049432
4413,15576.1716366527
4415,26313.8198445735
4527,56.4026950220318
4528,12.1261457340727
4529,6.7
4530,-1284066.32484853
2,1, 6, 8, 1, 1,55.00,56.00,Monday         
6,21.7933333333333
4170,1.666666666666667E-002
4171,1.666666666666667E-002
4172,1.666666666666667E-002
3911,6.71206682216427
3912,6.72700079106846
3913,12.5287539049206
3914,12.2184426841254
4168,212723.631312334
4169,117322.601665432
4379,39030.3769225229
4411,36386.4853049432
4413,15576.1716366527
4415,26313.8198445735
4527,56.5348945061857
4528,12.1317444878922
4529,6.7
4530,-1288404.00276663
2,1, 6, 8, 1, 1,56.00,57.00,Monday         
6,21.895
4170,1.666666666666667E-002
4171,1.666666666666667E-002
4172,1.666666666666667E-002
3911,6.71189492536512
3912,6.72657323375731
3913,12.5452745611432
3914,12.2238148976765
4168,212727.810584254
4169,117322.621428794
4379,39030.3769225229
4411,36386.4853049432
4413,15576.1716366527
4415,26313.8198445735
4527,56.6670624746042
4528,12.1373039617381
4529,6.7
4530,-1292737.83356193
2,1, 6, 8, 1, 1,57.00,58.00,Monday         
6,21.9966666666667
4170,1.666666666666667E-002
4171,1.666666666666667E-002
4172,1.666666666666667E-002
3911,6.71173448807128
3912,6.72617131950007
3913,12.5618133959488
3914,12.2304677810963
4168,212731.955312467
4169,117322.641332592
4379,39030.3769225229
4411,36386.4853049432
4413,15576.1716366527
4415,26313.8198445735
4527,56.7991010688943
4528,12.1429047184104
4529,6.7
4530,-1297084.71370228
2,1, 6, 8, 1, 1,58.00,59.00,Monday         
6,22.0983333333333
4170,1.666666666666667E-002
4171,1.666666666666667E-002
4172,1.666666666666667E-002
3911,6.71158486555065
3912,6.72579356838655
3913,12.5783590027703
3914,12.2383990388723
4168,212736.176708249
4169,117322.661351161
4379,39030.3769225229
4411,36386.4853049432
4413,15576.1716366527
4415,26313.8198445735
4527,56.9313410389389
4528,12.1486242266188
4529,6.7
4530,-1301470.76798229
2,1, 6, 8, 1, 1,59.00,60.00,Monday         
6,22.2
4170,1.666666666666667E-002
4171,1.666666666666667E-002
4172,1.666666666666667E-002
3911,6.71144546412048
3912,6.72543857693705
3913,12.594906166133
3914,12.2475662933768
4168,212740.35401548
4169,117322.681466215
4379,39030.3769225229
4411,36386.4853049432
4413,15576.1716366527
4415,26313.8198445735
4527,57.063388831166
4528,12.154534210877
4529,6.7
4530,-1305904.37416154
2,1, 6, 8, 1, 2, 0.00, 1.00,Monday         
6,22.1916666666667
4170,1.666666666666667E-002
4171,1.666666666666667E-002
4172,1.666666666666667E-002
3911,6.71131587919024
3912,6.72510795522158
3913,12.5960776317897
3914,12.2578710080805
4168,212740.034509992
4169,117322.701664748
4379,39030.3769225229
4411,36386.4853049432
4413,15576.1716366527
4415,26313.8198445735
4527,57.0634647003719
4528,12.1606907310293
4529,6.7
4530,-1307380.08364738
2,1, 6, 8, 1, 2, 1.00, 2.00,Monday         
6,22.1833333333333
4170,1.666666666666667E-002
4171,1.666666666666667E-002
4172,1.666666666666667E-002
3911,6.71119571119473
3912,6.72480028108484
3913,12.5969321593206
3914,12.2692131199185
4168,212739.784422226
4169,117322.721937526
4379,39030.3769225229
4411,36386.4853049432
4413,15576.1716366527
4415,26313.8198445735
4527,57.0634114205654
4528,12.1671400795831
4529,6.7
4530,-1308922.94270467
2,1, 6, 8, 1, 2, 2.00, 3.00,Monday         
6,22.175
4170,1.666666666666667E-002
4171,1.666666666666667E-002
4172,1.666666666666667E-002
3911,6.71108443652342
3912,6.72451421243614
3913,12.5974993454413
3914,12.2814815206052
4168,212739.48467877
4169,117322.742278016
4379,39030.3769225229
4411,36386.4853049432
4413,15576.1716366527
4415,26313.8198445735
4527,57.0631919226929
4528,12.173925382984
4529,6.7
4530,-1310542.41445122
2,1, 6, 8, 1, 2, 3.00, 4.00,Monday         
6,22.1666666666667
4170,1.666666666666667E-002
4171,1.666666666666667E-002
4172,1.666666666666667E-002
3911,6.71098157251225
3912,6.72424848003435
3913,12.5978483901841
3914,12.2945608475217
4168,212739.145904097
4169,117322.762681611