Program Version,EnergyPlus-Darwin-OMP-64 8.0.0.008, YMD=2013.08.30 11:54
1,5,Environment Title[],Latitude[deg],Longitude[deg],Time Zone[],Elevation[m]
2,6,Day of Simulation[],Month[],Day of Month[],DST Indicator[1=yes 0=no],Hour[],StartMinute[],EndMinute[],DayType
3,3,Cumulative Day of Simulation[],Month[],Day of Month[],DST Indicator[1=yes 0=no],DayType  ! When Daily Report Variables Requested
4,2,Cumulative Days of Simulation[],Month[]  ! When Monthly Report Variables Requested
5,1,Cumulative Days of Simulation[] ! When Run Period Report Variables Requested
6,1,Environment,Site Outdoor Air Drybulb Temperature [C] !TimeStep
299,1,PLENUM-1,Zone Air Temperature [C] !TimeStep
332,1,SPACE1-1,Zone Air Temperature [C] !TimeStep
365,1,SPACE2-1,Zone Air Temperature [C] !TimeStep
398,1,SPACE3-1,Zone Air Temperature [C] !TimeStep
431,1,SPACE4-1,Zone Air Temperature [C] !TimeStep
464,1,SPACE5-1,Zone Air Temperature [C] !TimeStep
End of Data Dictionary
1,Chicago Ohare Intl Ap IL USA TMY3 WMO#=725300,  41.98, -87.92,  -6.00, 201.00
2,1, 6, 1, 0, 1, 0.00, 1.00,Tuesday        
6,13.38
299,22.0334123910451
332,20.3191143126721
365,20.3746600289406
398,20.3016630749788
431,20.5386187153593
464,21.1536013082851
2,1, 6, 1, 0, 1, 1.00, 2.00,Tuesday        
6,13.46
299,22.0186373857929
332,20.3164042938346
365,20.3717117687202
398,20.2989687435178
431,20.534025605359
464,21.1493123022541
2,1, 6, 1, 0, 1, 2.00, 3.00,Tuesday        
6,13.54
299,22.0039378209182
332,20.3141106014638
365,20.3691102919651
398,20.2966910521887
431,20.5297957173098
464,21.1450435384746
2,1, 6, 1, 0, 1, 3.00, 4.00,Tuesday        
6,13.62
299,21.9893163513358
332,20.3121869107839
365,20.3668141805272
398,20.294784832193
431,20.5258876202195
464,21.1407950472788
2,1, 6, 1, 0, 1, 4.00, 5.00,Tuesday        
6,13.7
299,21.974770190348
332,20.3105769998431
365,20.3647742794582
398,20.2931944472044
431,20.5222519983414
464,21.1365667973168
2,1, 6, 1, 0, 1, 5.00, 6.00,Tuesday        
6,13.78
299,21.9603004883104
332,20.3092341608487
365,20.36295038671
398,20.2918734164694
431,20.5188484419862
464,21.132358822592
2,1, 6, 1, 0, 1, 6.00, 7.00,Tuesday        
6,13.86
299,21.9459042868815
332,20.3081229223349
365,20.3613125460079
398,20.2907863220796
431,20.5156467916969
464,21.1281711221687
2,1, 6, 1, 0, 1, 7.00, 8.00,Tuesday        
6,13.94
299,21.9315828910234
332,20.3072159831215
365,20.3598382025903
398,20.2899058366564
431,20.5126243061196
464,21.1240037845732
2,1, 6, 1, 0, 1, 8.00, 9.00,Tuesday        
6,14.02
299,21.9173334977646
332,20.3064912366931
365,20.3585094583286
398,20.2892097898574
431,20.5097629137142
464,21.1198568777053
2,1, 6, 1, 0, 1, 9.00,10.00,Tuesday        
6,14.1
299,21.9031575103546
332,20.305930265557
365,20.3573116812555
398,20.2886796747792
431,20.5070478171724
464,21.1157305641094
2,1, 6, 1, 0, 1,10.00,11.00,Tuesday        
6,14.18
299,21.8890522114569
332,20.3055174468749
365,20.3562326605235
398,20.2882997641847
431,20.5044666450881
464,21.1116249850465
2,1, 6, 1, 0, 1,11.00,12.00,Tuesday        
6,14.26
299,21.8750190882052
332,20.3052396057306
365,20.3552622829418
398,20.288056767496
431,20.5020091271729
464,21.1075403718854
2,1, 6, 1, 0, 1,12.00,13.00,Tuesday        
6,14.34
299,21.8610555215831
332,20.3050855596778
365,20.3543921034349
398,20.2879393839927
431,20.4996666640688
464,21.1034769281687
2,1, 6, 1, 0, 1,13.00,14.00,Tuesday        
6,14.42
299,21.8471631028552
332,20.3050459091985
365,20.353615161028
398,20.2879380952509
431,20.4974321431265
464,21.0994349397463
2,1, 6, 1, 0, 1,14.00,15.00,Tuesday        
6,14.5
299,21.833339323912
332,20.3051126522807
365,20.3529256242793
398,20.288044785942
431,20.4952995835139
464,21.0954146564037
2,1, 6, 1, 0, 1,15.00,16.00,Tuesday        
6,14.58
299,21.8195858910438
332,20.3052790489593
365,20.3523186825003
398,20.288252607836
431,20.4932640273087
464,21.0914164019366
2,1, 6, 1, 0, 1,16.00,17.00,Tuesday        
6,14.66
299,21.8059004092765
332,20.3055393159797
365,20.3517902690115
398,20.2885556785704
431,20.4913212624909
464,21.087440455957
2,1, 6, 1, 0, 1,17.00,18.00,Tuesday        
6,14.74
299,21.7922847051628
332,20.3058885666386
365,20.3513370236291
398,20.2889490193683
431,20.489467785374
464,21.0834871645593
2,1, 6, 1, 0, 1,18.00,19.00,Tuesday        
6,14.82
299,21.7787364934824
332,20.3063225691968
365,20.3509560750488
398,20.2894283164551
431,20.4877005828029
464,21.0795568224423
2,1, 6, 1, 0, 1,19.00,20.00,Tuesday        
6,14.9
299,21.7652577238047
332,20.3068377393255
365,20.3506450512739
398,20.2899899106118
431,20.4860171425862
464,21.075649784568
2,1, 6, 1, 0, 1,20.00,21.00,Tuesday        
6,14.98
299,21.751846213504
332,20.3074309404091
365,20.350401899436
398,20.2906305999773
431,20.4844152731771
464,21.0717663484635
2,1, 6, 1, 0, 1,21.00,22.00,Tuesday        
6,15.06
299,21.7385040363267
332,20.3080995111427
365,20.3502249271831
398,20.291347664394
431,20.4828931450963
464,21.0679068671624
2,1, 6, 1, 0, 1,22.00,23.00,Tuesday        
6,15.14
299,21.7252291023654
332,20.308841093566
365,20.3501126463871
398,20.2921386957427
431,20.4814491345221
464,21.0640716313947
2,1, 6, 1, 0, 1,23.00,24.00,Tuesday        
6,15.22
299,21.7120236095382
332,20.3096536850669
365,20.3500638354025
398,20.2930016465459
431,20.4800818855984
464,21.0602609840585
2,1, 6, 1, 0, 1,24.00,25.00,Tuesday        
6,15.3
299,21.6988855489743
332,20.3105354849607
365,20.3500773981616
398,20.2939346788164
431,20.4787901694236
464,21.0564752019274
2,1, 6, 1, 0, 1,25.00,26.00,Tuesday        
6,15.38
299,21.6858172417872
332,20.3114849638771
365,20.350152440957
398,20.2949362300048
431,20.4775729608899
464,21.0527146118804
2,1, 6, 1, 0, 1,26.00,27.00,Tuesday        
6,15.46
299,21.6728167473732
332,20.3125007225681
365,20.3502881412658
398,20.2960048741354
431,20.4764293074072
464,21.048979471728
2,1, 6, 1, 0, 1,27.00,28.00,Tuesday        
6,15.54
299,21.6598865081362
332,20.3135815739799
365,20.3504838349682
398,20.2971394004497
431,20.4753584161809
464,21.0452700884186
2,1, 6, 1, 0, 1,28.00,29.00,Tuesday        
6,15.62
299,21.6470246384244
332,20.3147264098901
365,20.3507388910759
398,20.2983386824751
431,20.474359528844
464,21.0415866975868
2,1, 6, 1, 0, 1,29.00,30.00,Tuesday        
6,15.7
299,21.6342336990916
332,20.3159342925318
365,20.3510528067629
398,20.2996017662467
431,20.473432016549
464,21.0379295839429
2,1, 6, 1, 0, 1,30.00,31.00,Tuesday        
6,15.78
299,21.6215118459928
332,20.3172043259773
365,20.3514250853851
398,20.3009277442464
431,20.4725752578921
464,21.0342989591727
2,1, 6, 1, 0, 1,31.00,32.00,Tuesday        
6,15.86
299,21.6088617546714
332,20.3185357552234
365,20.3518553376416
398,20.3023158511096
431,20.4717887401366
464,21.0306950847002
2,1, 6, 1, 0, 1,32.00,33.00,Tuesday        
6,15.94
299,21.596281609242
332,20.3199278401441
365,20.3523431610751
398,20.3037653402616
431,20.4710719386192
464,21.027118147606
2,1, 6, 1, 0, 1,33.00,34.00,Tuesday        
6,16.02
299,21.58377419532
332,20.3213799606378
365,20.3528882462823
398,20.3052755857007
431,20.4704244230234
464,21.0235683859343
2,1, 6, 1, 0, 1,34.00,35.00,Tuesday        
6,16.1
299,21.5713846086448
332,20.3228979130981
365,20.3534973322488
398,20.3068521754783
431,20.4698536669006
464,21.0200549965086
2,1, 6, 1, 0, 1,35.00,36.00,Tuesday        
6,16.18
299,21.5590509480056
332,20.3244729404282
365,20.3541610212036
398,20.3084866313636
431,20.4693490288998
464,21.0165664883922
2,1, 6, 1, 0, 1,36.00,37.00,Tuesday        
6,16.26
299,21.5468153613395
332,20.3261093047674
365,20.3548843415661
398,20.3101830528937
431,20.4689160919758
464,21.0131106252033
2,1, 6, 1, 0, 1,37.00,38.00,Tuesday        
6,16.34
299,21.5346271103244
332,20.3278000081432
365,20.355659820211
398,20.3119346618519
431,20.468546364772
464,21.0096778561468
2,1, 6, 1, 0, 1,38.00,39.00,Tuesday        
6,16.42
299,21.5225346303301
332,20.3295505424687
365,20.3564938490839
398,20.3137467441053
431,20.4682469572922
464,21.0062772938222
2,1, 6, 1, 0, 1,39.00,40.00,Tuesday        
6,16.5
299,21.5104910941015
332,20.3313547146174
365,20.3573797971697
398,20.3156133062389
431,20.4680103157599
464,21.0029001052638
2,1, 6, 1, 0, 1,40.00,41.00,Tuesday        
6,16.58
299,21.4985446862314
332,20.3332180108081
365,20.3583240273767
398,20.3175396305104
431,20.4678435215575
464,20.999555409905
2,1, 6, 1, 0, 1,41.00,42.00,Tuesday        
6,16.66
299,21.48664943772
332,20.3351344128673
365,20.3593200469584
398,20.3195198999763
431,20.467739171083
464,20.9962344515946
2,1, 6, 1, 0, 1,42.00,43.00,Tuesday        
6,16.74
299,21.4748524971283
332,20.3371092181378
365,20.3603739931299
398,20.3215592147117
431,20.4677040982593
464,20.9929461814789
2,1, 6, 1, 0, 1,43.00,44.00,Tuesday        
6,16.82
299,21.4631543914022
332,20.339142597242
365,20.3614862086008
398,20.3236577416795
431,20.4677385557572
464,20.9896909240153
2,1, 6, 1, 0, 1,44.00,45.00,Tuesday        
6,16.9
299,21.4515382966138
332,20.3412323612575
365,20.3626544147774
398,20.3258133672242
431,20.4678399087916
464,20.9864663063482
2,1, 6, 1, 0, 1,45.00,46.00,Tuesday        
6,16.98
299,21.4399983221264
332,20.3433767610702
365,20.3638768417484
398,20.3280243965246
431,20.4680061073075
464,20.9832706584584
2,1, 6, 1, 0, 1,46.00,47.00,Tuesday        
6,17.06
299,21.4285303688177
332,20.3455749469722
365,20.3651527287568
398,20.3302900003287
431,20.4682362243664
464,20.9801033568534
2,1, 6, 1, 0, 1,47.00,48.00,Tuesday        
6,17.14
299,21.4171381216975
332,20.3478265927579
365,20.3664818902119
398,20.3326098547275
431,20.4685299697375
464,20.9769643529715
2,1, 6, 1, 0, 1,48.00,49.00,Tuesday        
6,17.22
299,21.4058210015097
332,20.3501315320704
365,20.367864307748
398,20.3349837915509
431,20.4688872383412
464,20.9738537567359
2,1, 6, 1, 0, 1,49.00,50.00,Tuesday        
6,17.3
299,21.3945831269635
332,20.3524896058157
365,20.369299956769
398,20.3374116509579
431,20.4693079185198
464,20.9707716927121
2,1, 6, 1, 0, 1,50.00,51.00,Tuesday        
6,17.38
299,21.3834233344697
332,20.354900621121
365,20.370788765708
398,20.3398932416228
431,20.4697918477866
464,20.9677182451799
2,1, 6, 1, 0, 1,51.00,52.00,Tuesday        
6,17.46
299,21.3723453062235
332,20.3573643667188
365,20.3723306322814
398,20.3424283550168
431,20.470338830589
464,20.9646934878687
2,1, 6, 1, 0, 1,52.00,53.00,Tuesday        
6,17.54
299,21.3613475490123
332,20.3598806183479
365,20.373925434159
398,20.3450167705684
431,20.4709486505263
464,20.961697473332
2,1, 6, 1, 0, 1,53.00,54.00,Tuesday        
6,17.62
299,21.3504336524862
332,20.3624491518908
365,20.3755730414644
398,20.3476582680149
431,20.4716210837772
464,20.9587302600012
2,1, 6, 1, 0, 1,54.00,55.00,Tuesday        
6,17.7
299,21.3396019822026
332,20.3650697384118
365,20.3772733150251
398,20.3503526227325
431,20.4723558975342
464,20.9557918914221
2,1, 6, 1, 0, 1,55.00,56.00,Tuesday        
6,17.78
299,21.3288560978671
332,20.3677421512477
365,20.3790261115969
398,20.3530996123269
431,20.4731528553852
464,20.9528824182054
2,1, 6, 1, 0, 1,56.00,57.00,Tuesday        
6,17.86
299,21.318194241026
332,20.3704661591032
365,20.3808312797866
398,20.3558990101244
431,20.47401171318
464,20.9500018754627
2,1, 6, 1, 0, 1,57.00,58.00,Tuesday        
6,17.94
299,21.3076199458
332,20.3732415331213
365,20.3826886650915
398,20.3587505917556
431,20.4749322242109
464,20.9471503052143
2,1, 6, 1, 0, 1,58.00,59.00,Tuesday        
6,18.02
299,21.2971313400387
332,20.3760680402153
365,20.3845981060421
398,20.3616541288911
431,20.4759141353219
464,20.9443277339355
2,1, 6, 1, 0, 1,59.00,60.00,Tuesday        
6,18.1
299,21.2867319411886
332,20.3789454503153
365,20.3865594392993
398,20.3646093960042
431,20.4769571921513
464,20.9415341955128
2,1, 6, 1, 0, 2, 0.00, 1.00,Tuesday        
6,18.1016666666667
299,21.2764144608302
332,20.3816135905317
365,20.3883567291885
398,20.3673589789882
431,20.4778457126063
464,20.9387698046316
2,1, 6, 1, 0, 2, 1.00, 2.00,Tuesday        
6,18.1033333333333
299,21.2661731658342
332,20.3839241824518
365,20.3898682172617
398,20.3697554701567
431,20.4784577828596
464,20.9360345826179
2,1, 6, 1, 0, 2, 2.00, 3.00,Tuesday        
6,18.105
299,21.256000726368
332,20.3858624645875
365,20.3910844457039
398,20.3717832432478
431,20.4787837004354
464,20.9333284433251
2,1, 6, 1, 0, 2, 3.00, 4.00,Tuesday        
6,18.1066666666667
299,21.2458988345103
332,20.3874765779876
365,20.3920484132236
398,20.3734890367114
431,20.4788662807045
464,20.9306512933858
2,1, 6, 1, 0, 2, 4.00, 5.00,Tuesday        
6,18.1083333333333
299,21.235865898024
332,20.388825280765
365,20.3928111693877
398,20.3749303988498
431,20.4787564557937
464,20.9280030332845
2,1, 6, 1, 0, 2, 5.00, 6.00,Tuesday        
6,18.11
299,21.2259061439418
332,20.3899579487858
365,20.3934149317379
398,20.3761558735159
431,20.4784963579631
464,20.9253835674494
2,1, 6, 1, 0, 2, 6.00, 7.00,Tuesday        
6,18.1116666666667
299,21.2160219890886
332,20.3909123780716
365,20.3938914394388
398,20.3772027353991
431,20.478117648669
464,20.9227979177139
2,1, 6, 1, 0, 2, 7.00, 8.00,Tuesday        
6,18.1133333333333
299,21.2062184475676
332,20.391717882684
365,20.3942648172507
398,20.378099976069
431,20.4776443732418
464,20.920228546989
2,1, 6, 1, 0, 2, 8.00, 9.00,Tuesday        
6,18.115
299,21.1964929272601
332,20.3923981123376
365,20.3945541366807
398,20.3788710453803
431,20.4770955208463
464,20.9176640485643
2,1, 6, 1, 0, 2, 9.00,10.00,Tuesday        
6,18.1166666666667
299,21.1868483515252
332,20.3929727305066
365,20.3947749527803
398,20.3795354859137
431,20.4764865627122
464,20.9151019768875
2,1, 6, 1, 0, 2,10.00,11.00,Tuesday        
6,18.1183333333333
299,21.1772825686468
332,20.3934582793614
365,20.3949401142552
398,20.3801097747568
431,20.4758302633975
464,20.912544099617
2,1, 6, 1, 0, 2,11.00,12.00,Tuesday        
6,18.12
299,21.1677991918965
332,20.3938686952686
365,20.3950602468258
398,20.3806078238477
431,20.4751371648887
464,20.9099931449777
2,1, 6, 1, 0, 2,12.00,13.00,Tuesday        
6,18.1216666666667
299,21.1583963315336
332,20.3942156918471
365,20.395144111623
398,20.3810413524024
431,20.4744159451883
464,20.9074513552969
2,1, 6, 1, 0, 2,13.00,14.00,Tuesday        
6,18.1233333333333
299,21.1490776359004
332,20.3945091109955
365,20.3951989230484
398,20.3814202284706
431,20.4736737363682
464,20.9049205041015
2,1, 6, 1, 0, 2,14.00,15.00,Tuesday        
6,18.125
299,21.1398410829305
332,20.3947572209662
365,20.3952306171751
398,20.3817527602857
431,20.472916392951
464,20.9024018903202
2,1, 6, 1, 0, 2,15.00,16.00,Tuesday        
6,18.1266666666667
299,21.130690205196
332,20.3949669836036
365,20.3952440847074
398,20.3820459575659
431,20.4721487249948
464,20.8998966511695
2,1, 6, 1, 0, 2,16.00,17.00,Tuesday        
6,18.1283333333333
299,21.1216228228676
332,20.3951442648688
365,20.3952433545382
398,20.3823057384806
431,20.471374681601
464,20.8974056680248
2,1, 6, 1, 0, 2,17.00,18.00,Tuesday        
6,18.13
299,21.1126423479291
332,20.395294020569
365,20.3952317498144
398,20.3825371120524
431,20.4705975070763
464,20.8949297666002
2,1, 6, 1, 0, 2,18.00,19.00,Tuesday        
6,18.1316666666667
299,21.1037464486959
332,20.3954204377232
365,20.3952120076054
398,20.3827443179853
431,20.4698198605258
464,20.8924695640169
2,1, 6, 1, 0, 2,19.00,20.00,Tuesday        
6,18.1333333333333
299,21.0949384064685
332,20.3955270635362
365,20.3951863834435
398,20.3829309538284
431,20.4690439204666
464,20.8900256512947
2,1, 6, 1, 0, 2,20.00,21.00,Tuesday        
6,18.135
299,21.086215740006
332,20.395616900992
365,20.395156730216
398,20.3831000701514
431,20.4682714636289
464,20.8875984374019
2,1, 6, 1, 0, 2,21.00,22.00,Tuesday        
6,18.1366666666667
299,21.0775815897776
332,20.3956925001811
365,20.3951245697023
398,20.383254260897
431,20.4675039365548
464,20.8851883312176
2,1, 6, 1, 0, 2,22.00,23.00,Tuesday        
6,18.1383333333333
299,21.0690333319403
332,20.3957560232372
365,20.3950911450857
398,20.3833957285074
431,20.4667425080149
464,20.8827955842568
2,1, 6, 1, 0, 2,23.00,24.00,Tuesday        
6,18.14
299,21.0605739599359
332,20.3958093099496
365,20.395057470666
398,20.3835263490138
431,20.4659881187774
464,20.8804204695388
2,1, 6, 1, 0, 2,24.00,25.00,Tuesday        
6,18.1416666666667
299,21.0522007185788
332,20.3958539217353
365,20.3950243669025
398,20.3836477165122
431,20.4652415165557
464,20.8780631223069
2,1, 6, 1, 0, 2,25.00,26.00,Tuesday        
6,18.1433333333333
299,21.0439164511086
332,20.3958911894349
365,20.3949924954434
398,20.3837611906653
431,20.4645032910935
464,20.8757237153353
2,1, 6, 1, 0, 2,26.00,27.00,Tuesday        
6,18.145
299,21.035718284889
332,20.3959222428689
365,20.3949623825086
398,20.3838679269047
431,20.4637738974543
464,20.8734022986601
2,1, 6, 1, 0, 2,27.00,28.00,Tuesday        
6,18.1466666666667
299,21.027608912101
332,20.3959480461964
365,20.3949344439372
398,20.3839689115969
431,20.463053681124
464,20.8710989714897
2,1, 6, 1, 0, 2,28.00,29.00,Tuesday        
6,18.1483333333333
299,21.0195853581158
332,20.3959694175224
365,20.3949090007379
398,20.3840649823416
431,20.4623428934724
464,20.868813721947
2,1, 6, 1, 0, 2,29.00,30.00,Tuesday        
6,18.15
299,21.0116501651714
332,20.3959870554964
365,20.3948862972689
398,20.3841568544093
431,20.4616417099869
464,20.8665465956134
2,1, 6, 1, 0, 2,30.00,31.00,Tuesday        
6,18.1516666666667
299,21.0038002729258
332,20.3960015520266
365,20.3948665114927
398,20.384245134139
431,20.4609502404441
464,20.8642975360885
2,1, 6, 1, 0, 2,31.00,32.00,Tuesday        
6,18.1533333333333
299,20.9960380764913
332,20.3960134126484
365,20.3948497683694
398,20.3843303391431
431,20.4602685423556
464,20.8620665501197
2,1, 6, 1, 0, 2,32.00,33.00,Tuesday        
6,18.155
299,20.988360446334
332,20.3960230644494
365,20.3948361465139
398,20.3844129068816
431,20.4595966275463
464,20.859853549655
2,1, 6, 1, 0, 2,33.00,34.00,Tuesday        
6,18.1566666666667
299,20.980769634695
332,20.3960308719624
365,20.39482568821
398,20.3844932103732
431,20.4589344722213
464,20.8576585134839
2,1, 6, 1, 0, 2,34.00,35.00,Tuesday        
6,18.1583333333333
299,20.9732624591614
332,20.3960371417586
365,20.3948184036148
398,20.3845715633942
431,20.4582820210942
464,20.8554813313445
2,1, 6, 1, 0, 2,35.00,36.00,Tuesday        
6,18.16
299,20.9658410345222
332,20.3960421350926
365,20.3948142783591
398,20.3846482329171
431,20.4576391950403
464,20.8533219619919
2,1, 6, 1, 0, 2,36.00,37.00,Tuesday        
6,18.1616666666667
299,20.9585021412385
332,20.3960460701779
365,20.3948132760754
398,20.3847234419462
431,20.4570058935524
464,20.8511802798176
2,1, 6, 1, 0, 2,37.00,38.00,Tuesday        
6,18.1633333333333
299,20.951247762959
332,20.3960491324485
365,20.3948153442542
398,20.38479737955
431,20.4563820006481
464,20.8490562292605
2,1, 6, 1, 0, 2,38.00,39.00,Tuesday        
6,18.165
299,20.9440746579435
332,20.3960514752269
365,20.3948204156269
398,20.3848702020452
431,20.4557673861846
464,20.846949674306
2,1, 6, 1, 0, 2,39.00,40.00,Tuesday        
6,18.1666666666667
299,20.9369846856408
332,20.396053228216
365,20.3948284127453
398,20.3849420412396
431,20.4551619104879
464,20.8448605491634
2,1, 6, 1, 0, 2,40.00,41.00,Tuesday        
6,18.1683333333333
299,20.9299745960129
332,20.3960544970573
365,20.3948392485867
398,20.3850130044665
431,20.4545654248926
464,20.8427887109322
2,1, 6, 1, 0, 2,41.00,42.00,Tuesday        
6,18.17
299,20.923046131635
332,20.3960553704929
365,20.3948528301873
398,20.3850831814826
431,20.453977775424
464,20.8407340864821
2,1, 6, 1, 0, 2,42.00,43.00,Tuesday        
6,18.1716666666667
299,20.9161960469224
332,20.3960559191643
365,20.3948690587216
398,20.3851526437077
431,20.4533988028148
464,20.8386965285062
2,1, 6, 1, 0, 2,43.00,44.00,Tuesday        
6,18.1733333333333
299,20.9094259750786
332,20.3960562017612
365,20.3948878324278
398,20.3852214500983
431,20.4528283454779
464,20.8366759585574
2,1, 6, 1, 0, 2,44.00,45.00,Tuesday        
6,18.175
299,20.9027326864972
332,20.3960562633088
365,20.3949090463356
398,20.3852896458451
431,20.4522662391748
464,20.834672226649
2,1, 6, 1, 0, 2,45.00,46.00,Tuesday        
6,18.1766666666667
299,20.8961177125098
332,20.3960561405339
365,20.3949325946557
398,20.3853572674567
431,20.4517123194497
464,20.8326852504175
2,1, 6, 1, 0, 2,46.00,47.00,Tuesday        
6,18.1783333333333
299,20.8895778497598
332,20.3960558598156
365,20.3949583702777
398,20.3854243410944
431,20.4511664210715
464,20.830714878383
2,1, 6, 1, 0, 2,47.00,48.00,Tuesday        
6,18.18
299,20.8831145350653
332,20.3960554419371
365,20.3949862667483
398,20.3854908870378
431,20.4506283800546
464,20.8287610252269
2,1, 6, 1, 0, 2,48.00,49.00,Tuesday        
6,18.1816666666667
299,20.876724600347
332,20.3960548998245
365,20.3950161776241
398,20.3855569177841
431,20.4500980329583
464,20.826823538782
2,1, 6, 1, 0, 2,49.00,50.00,Tuesday        
6,18.1833333333333
299,20.8704093950208
332,20.3960542428097
365,20.3950479981311
398,20.3856224420249
431,20.4495752185874
464,20.8249023314299
2,1, 6, 1, 0, 2,50.00,51.00,Tuesday        
6,18.185
299,20.8641657941081
332,20.3960534742443
365,20.395081624431
398,20.3856874625994
431,20.4490597772067
464,20.8229972508565
2,1, 6, 1, 0, 2,51.00,52.00,Tuesday        
6,18.1866666666667
299,20.8579950664101
332,20.3960525953674
365,20.3951169550308
398,20.3857519800784
431,20.4485515519908
464,20.8211082075911
2,1, 6, 1, 0, 2,52.00,53.00,Tuesday        
6,18.1883333333333
299,20.8518941367291
332,20.3960516028565
365,20.3951538900026
398,20.3858159906364
431,20.4480503881942
464,20.8192350495331
2,1, 6, 1, 0, 2,53.00,54.00,Tuesday        
6,18.19
299,20.8458641996667
332,20.3960504923711
365,20.3951923321962
398,20.3858794893148
431,20.4475561344016
464,20.8173776856682
2,1, 6, 1, 0, 2,54.00,55.00,Tuesday        
6,18.1916666666667
299,20.8399022354172
332,20.3960492560841
365,20.3952321864398
398,20.3859424678589
431,20.4470686416823
464,20.8155359643498
2,1, 6, 1, 0, 2,55.00,56.00,Tuesday        
6,18.1933333333333
299,20.834009370397
332,20.3960478859551
365,20.3952733605949
398,20.3860049177152
431,20.4465877646799
464,20.8137097932402
2,1, 6, 1, 0, 2,56.00,57.00,Tuesday        
6,18.195
299,20.8281826448189
332,20.3960463712733
365,20.3953157647568
398,20.3860668278654
431,20.4461133607689
464,20.8118990213104
2,1, 6, 1, 0, 2,57.00,58.00,Tuesday        
6,18.1966666666667
299,20.8224231225149
332,20.3960447017016
365,20.3953593121824
398,20.3861281876016
431,20.445645291016
464,20.8101035550652
2,1, 6, 1, 0, 2,58.00,59.00,Tuesday        
6,18.1983333333333
299,20.8167279074466
332,20.3960428648519
365,20.395403918503
398,20.3861889843784
431,20.4451834193506
464,20.8083232442091
2,1, 6, 1, 0, 2,59.00,60.00,Tuesday        
6,18.2
299,20.8110980060495
332,20.3960408491338
365,20.3954495025485
398,20.3862492063996
431,20.4447276134209
464,20.8065579942251
2,1, 6, 1, 0, 3, 0.00, 1.00,Tuesday        
6,18.2
299,20.8055304938504
332,20.396034381124
365,20.3954923435719
398,20.3863044069443
431,20.4442741023788
464,20.8048076556404
2,1, 6, 1, 0, 3, 1.00, 2.00,Tuesday        
6,18.2
299,20.8000261390101
332,20.3960198362284
365,20.3955292039892
398,20.3863507856651
431,20.4438195994244
464,20.8030721303751
2,1, 6, 1, 0, 3, 2.00, 3.00,Tuesday        
6,18.2
299,20.7945820402414
332,20.3959959871718
365,20.3955589385264
398,20.3863870294821
431,20.4433629102304
464,20.8013512648552
2,1, 6, 1, 0, 3, 3.00, 4.00,Tuesday        
6,18.2
299,20.7891990339919
332,20.3959633049946
365,20.3955819233118
398,20.3864136020262
431,20.4429043618972
464,20.7996449577692
2,1, 6, 1, 0, 3, 4.00, 5.00,Tuesday        
6,18.2
299,20.784024083296
332,20.395922897046
365,20.3955991154635
398,20.3864316420252
431,20.4424448626623
464,20.7979585129645
2,1, 6, 1, 0, 3, 5.00, 6.00,Tuesday        
6,18.2
299,20.7789960808804
332,20.3958760637812
365,20.3956116610818
398,20.3864424869643
431,20.4419855101033
464,20.7962888581101
2,1, 6, 1, 0, 3, 6.00, 7.00,Tuesday        
6,18.2
299,20.7740432321762
332,20.3958237682055
365,20.3956203816693
398,20.3864471387381
431,20.4415270776255
464,20.7946323937459
2,1, 6, 1, 0, 3, 7.00, 8.00,Tuesday        
6,18.2
299,20.7691366700476
332,20.3957667200032
365,20.3956258540329
398,20.3864463420639
431,20.4410700944436
464,20.7929876119218
2,1, 6, 1, 0, 3, 8.00, 9.00,Tuesday        
6,18.2
299,20.7642688073168
332,20.3957054668312
365,20.3956285019738
398,20.3864406752204
431,20.440614937249
464,20.7913542440214
2,1, 6, 1, 0, 3, 9.00,10.00,Tuesday        
6,18.2
299,20.7594443673378
332,20.3956404514985
365,20.3956286513412
398,20.3864306076621
431,20.4401618852841
464,20.7897324506911
2,1, 6, 1, 0, 3,10.00,11.00,Tuesday        
6,18.2
299,20.7546643070209
332,20.3955720392455
365,20.3956265587892
398,20.3864165281948
431,20.4397111490626
464,20.7881223560126
2,1, 6, 1, 0, 3,11.00,12.00,Tuesday        
6,18.2
299,20.7499318989617
332,20.3955005397763
365,20.3956224322254
398,20.3863987671643
431,20.4392628908365
464,20.7865240570417
2,1, 6, 1, 0, 3,12.00,13.00,Tuesday        
6,18.2
299,20.7452455006522
332,20.3954262145956
365,20.3956164394274
398,20.3863776043862
431,20.43881723318
464,20.7849375676068
2,1, 6, 1, 0, 3,13.00,14.00,Tuesday        
6,18.2
299,20.7406067655131
332,20.3953492874464
365,20.3956087166143
398,20.3863532796596
431,20.4383742675791
464,20.7833629198201
2,1, 6, 1, 0, 3,14.00,15.00,Tuesday        
6,18.2
299,20.7360135275212
332,20.3952699462918
365,20.3955993714209
398,20.3863259952956
431,20.4379340573763
464,20.7818000973996
2,1, 6, 1, 0, 3,15.00,16.00,Tuesday        
6,18.2
299,20.7314672148114
332,20.3951883517403
365,20.395588489412
398,20.3862959245581
431,20.4374966443022
464,20.7802491125594
2,1, 6, 1, 0, 3,16.00,17.00,Tuesday        
6,18.2
299,20.7269656504531
332,20.3951046382375
365,20.3955761362145
398,20.3862632133148
431,20.4370620505796
464,20.7787099319364
2,1, 6, 1, 0, 3,17.00,18.00,Tuesday        
6,18.2
299,20.7225101304526
332,20.3950189214084
365,20.3955623630199
398,20.386227987328
431,20.4366302844433
464,20.7771825493594
2,1, 6, 1, 0, 3,18.00,19.00,Tuesday        
6,18.2
299,20.7180984526481
332,20.3949312981859
365,20.3955472076464
398,20.3861903527746
431,20.4362013411744
464,20.7756669148664
2,1, 6, 1, 0, 3,19.00,20.00,Tuesday        
6,18.2
299,20.7137317811945
332,20.3948418528297
365,20.39553069881
398,20.3861504021768
431,20.4357752073884
464,20.77416300574
2,1, 6, 1, 0, 3,20.00,21.00,Tuesday        
6,18.2
299,20.7094079076047
332,20.3947506560955
365,20.3955128562366
398,20.3861082139142
431,20.4353518611211
464,20.7726707580232
2,1, 6, 1, 0, 3,21.00,22.00,Tuesday        
6,18.2
299,20.7051278951224
332,20.3946577702608
365,20.3954936940444
398,20.3860638571351
431,20.4349312752264
464,20.7711901352303
2,1, 6, 1, 0, 3,22.00,23.00,Tuesday        
6,18.2
299,20.7008895545189
332,20.3945632476919
365,20.3954732202732
398,20.3860173906303
431,20.4345134168817
464,20.769721062009
2,1, 6, 1, 0, 3,23.00,24.00,Tuesday        
6,18.2
299,20.6966938720488
332,20.3944671351875
365,20.3954514396877
398,20.3859688670408
431,20.434098250405
464,20.7682634905564
2,1, 6, 1, 0, 3,24.00,25.00,Tuesday        
6,18.2
299,20.6925386935811
332,20.394369472176
365,20.3954283529543
398,20.3859183313323
431,20.4336857364091
464,20.7668173363768
2,1, 6, 1, 0, 3,25.00,26.00,Tuesday        
6,18.2
299,20.6884776192102
332,20.3942750527942
365,20.3954084727135
398,20.3858703624922
431,20.433281236868
464,20.7653971719294
2,1, 6, 1, 0, 3,26.00,27.00,Tuesday        
6,18.2
299,20.6844315753097
332,20.394177863452
365,20.3953860333526
398,20.3858192411289
431,20.4328778284392
464,20.7639827424177
2,1, 6, 1, 0, 3,27.00,28.00,Tuesday        
6,18.2
299,20.6804499202984
332,20.394081352641
365,20.3953642469479
398,20.3857682552079
431,20.4324793447576
464,20.7625870334735
2,1, 6, 1, 0, 3,28.00,29.00,Tuesday        
6,18.2
299,20.6764708346731
332,20.3939806337166
365,20.3953384631212
398,20.3857127541173
431,20.4320801763244
464,20.7611936882069
2,1, 6, 1, 0, 3,29.00,30.00,Tuesday        
6,18.2
299,20.6725534280865
332,20.393880178135
365,20.3953129026829
398,20.3856570001908
431,20.431685331846
464,20.7598179933114
2,1, 6, 1, 0, 3,30.00,31.00,Tuesday        
6,18.2
299,20.6686404629428
332,20.3937756812567
365,20.3952834825775
398,20.3855968972129
431,20.4312898747655
464,20.7584447969981
2,1, 6, 1, 0, 3,31.00,32.00,Tuesday        
6,18.2
299,20.6647899870568
332,20.3936716538549
365,20.3952544563027
398,20.3855367458859
431,20.4308988531064
464,20.7570892437071
2,1, 6, 1, 0, 3,32.00,33.00,Tuesday        
6,18.2
299,20.6609449908618
332,20.3935638215572
365,20.3952217642691
398,20.3854724786788
431,20.4305073681812
464,20.755736341565
2,1, 6, 1, 0, 3,33.00,34.00,Tuesday        
6,18.2
299,20.6571619004987
332,20.3934565720011
365,20.395189537148
398,20.3854082795739
431,20.4301203228245
464,20.7544008949666
2,1, 6, 1, 0, 3,34.00,35.00,Tuesday        
6,18.2
299,20.6533844174505
332,20.3933456627752
365,20.3951537450729
398,20.3853401110225
431,20.4297328605533
464,20.7530681299833
2,1, 6, 1, 0, 3,35.00,36.00,Tuesday        
6,18.2
299,20.649667835276
332,20.3932353961151
365,20.395118436377
398,20.3852720760562
431,20.429349784362
464,20.7517525894313
2,1, 6, 1, 0, 3,36.00,37.00,Tuesday        
6,18.2
299,20.6460094599079
332,20.3931266623887
365,20.3950844665125
398,20.3852050438101
431,20.4289719921609
464,20.7504542178161
2,1, 6, 1, 0, 3,37.00,38.00,Tuesday        
6,18.2
299,20.6423942452529
332,20.3930180159443
365,20.3950504106309
398,20.3851376422847
431,20.4285977835759
464,20.7491685868005
2,1, 6, 1, 0, 3,38.00,39.00,Tuesday        
6,18.2
299,20.6388222930282
332,20.3929081708189
365,20.3950149990802
398,20.3850686459232
431,20.4282256544447
464,20.7478928739582
2,1, 6, 1, 0, 3,39.00,40.00,Tuesday        
6,18.2
299,20.6352663398038
332,20.392797067684
365,20.3949781734986
398,20.3849980085962
431,20.4278554262274
464,20.7466270389847
2,1, 6, 1, 0, 3,40.00,41.00,Tuesday        
6,18.2
299,20.6317081172609
332,20.3926847007192
365,20.3949399264247
398,20.3849257282955
431,20.4274870436507
464,20.7453709306785